# OOMMF: rectangular mesh v0.99 
# Segment count: 1 
# Begin: Segment 
# Begin: Header 
# Title: model.omf 
# Desc: 
# meshunit: unknown 
# xbase: 0 
# ybase: 0 
# zbase: 0 
# xstepsize: 1
# ystepsize: 1 
# zstepsize: 1 
# xnodes: 50 
# ynodes: 50 
# znodes: 4 
# xmin: -0.5 
# ymin: -0.5 
# zmin: -0.5 
# xmax: 49.500000 
# ymax: 49.500000 
# zmax: 3.500000 
# valueunit: Ms 
# valuemultiplier: 1 
# ValueRangeMaxMag:  1. 
# ValueRangeMinMag:  1e-8 
# End: Header 
# Begin: data text 
0.753236 0.639199 0.155114 
0.790435 0.597197 0.136268 
0.826693 0.549857 0.119314 
0.856837 0.504576 0.105987 
0.880882 0.463617 0.095432 
0.899919 0.427338 0.086766 
0.915074 0.395387 0.079425 
0.927267 0.367200 0.073072 
0.937197 0.342207 0.067502 
0.945381 0.319906 0.062571 
0.952202 0.299877 0.058175 
0.957944 0.281784 0.054232 
0.962817 0.265358 0.050678 
0.966980 0.250394 0.047461 
0.970554 0.236729 0.044541 
0.973634 0.224238 0.041888 
0.976293 0.212823 0.039475 
0.978593 0.202399 0.037283 
0.980584 0.192897 0.035292 
0.982309 0.184248 0.033487 
0.983805 0.176389 0.031854 
0.985104 0.169256 0.030377 
0.986234 0.162785 0.029043 
0.987220 0.156911 0.027839 
0.988085 0.151569 0.026750 
0.988846 0.146697 0.025763 
0.989521 0.142234 0.024867 
0.990123 0.138122 0.024050 
0.990665 0.134310 0.023301 
0.991157 0.130752 0.022611 
0.991607 0.127409 0.021973 
0.992020 0.124251 0.021383 
0.992402 0.121260 0.020835 
0.992754 0.118428 0.020331 
0.993078 0.115766 0.019872 
0.993370 0.113305 0.019464 
0.993625 0.111104 0.019119 
0.993835 0.109255 0.018852 
0.993987 0.107897 0.018681 
0.994060 0.107231 0.018629 
0.994026 0.107528 0.018716 
0.993844 0.109153 0.018944 
0.993458 0.112563 0.019267 
0.992787 0.118294 0.019513 
0.991733 0.126867 0.019222 
0.990203 0.138557 0.017296 
0.988180 0.152876 0.011388 
0.985845 0.167636 -0.002870 
0.983547 0.177911 -0.031359 
0.981338 0.177921 -0.072943 
0.728370 0.669830 0.144240 
0.766855 0.630659 0.119173 
0.806310 0.582996 0.099902 
0.839450 0.536483 0.086657 
0.865979 0.494101 0.077100 
0.887055 0.456376 0.069671 
0.903903 0.422990 0.063548 
0.917519 0.393394 0.058316 
0.928655 0.367029 0.053753 
0.937872 0.343399 0.049723 
0.945583 0.322093 0.046133 
0.952094 0.302778 0.042914 
0.957635 0.285193 0.040012 
0.962377 0.269132 0.037387 
0.966455 0.254439 0.035004 
0.969972 0.240991 0.032841 
0.973010 0.228689 0.030875 
0.975637 0.217453 0.029090 
0.977911 0.207210 0.027473 
0.979879 0.197892 0.026011 
0.981583 0.189432 0.024690 
0.983062 0.181762 0.023500 
0.984346 0.174812 0.022429 
0.985466 0.168513 0.021466 
0.986445 0.162794 0.020598 
0.987306 0.157587 0.019816 
0.988069 0.152824 0.019110 
0.988748 0.148444 0.018469 
0.989359 0.144391 0.017885 
0.989912 0.140615 0.017351 
0.990417 0.137076 0.016862 
0.990880 0.133742 0.016413 
0.991306 0.130596 0.016002 
0.991698 0.127636 0.015630 
0.992054 0.124879 0.015298 
0.992371 0.122367 0.015014 
0.992642 0.120177 0.014787 
0.992855 0.118428 0.014630 
0.992990 0.117300 0.014559 
0.993019 0.117048 0.014590 
0.992901 0.118030 0.014738 
0.992572 0.120732 0.014993 
0.991938 0.125798 0.015297 
0.990855 0.134041 0.015463 
0.989109 0.146419 0.015005 
0.986393 0.163906 0.012783 
0.982308 0.187167 0.006327 
0.976378 0.215877 -0.009065 
0.968061 0.247508 -0.039969 
0.957651 0.275001 -0.085315 
0.701525 0.699787 0.134764 
0.739761 0.664308 0.106998 
0.781188 0.618328 0.086115 
0.817135 0.571849 0.072651 
0.846453 0.528649 0.063618 
0.870027 0.489701 0.056980 
0.889042 0.454899 0.051692 
0.904522 0.423801 0.047251 
0.917265 0.395905 0.043407 
0.927868 0.370754 0.040022 
0.936779 0.347958 0.037011 
0.944331 0.327202 0.034312 
0.950776 0.308234 0.031878 
0.956305 0.290861 0.029677 
0.961065 0.274932 0.027681 
0.965173 0.260331 0.025869 
0.968722 0.246965 0.024226 
0.971789 0.234754 0.022739 
0.974440 0.223627 0.021394 
0.976731 0.213514 0.020183 
0.978713 0.204345 0.019095 
0.980427 0.196047 0.018120 
0.981913 0.188545 0.017248 
0.983205 0.181760 0.016468 
0.984333 0.175615 0.015772 
0.985322 0.170033 0.015150 
0.986195 0.164942 0.014592 
0.986972 0.160274 0.014091 
0.987668 0.155966 0.013640 
0.988297 0.151966 0.013233 
0.988869 0.148231 0.012866 
0.989391 0.144732 0.012535 
0.989869 0.141454 0.012239 
0.990304 0.138403 0.011980 
0.990693 0.135608 0.011761 
0.991031 0.133131 0.011588 
0.991306 0.131079 0.011470 
0.991499 0.129614 0.011420 
0.991581 0.128979 0.011449 
0.991509 0.129522 0.011571 
0.991215 0.131733 0.011786 
0.990595 0.136293 0.012073 
0.989481 0.144133 0.012345 
0.987602 0.156490 0.012377 
0.984508 0.174953 0.011619 
0.979464 0.201424 0.008840 
0.971306 0.237828 0.001444 
0.958369 0.285119 -0.015359 
0.939064 0.340392 -0.047868 
0.916161 0.389672 -0.093833 
0.676559 0.725266 0.127504 
0.714480 0.692589 0.099193 
0.756970 0.648803 0.077794 
0.794950 0.603261 0.064263 
0.826615 0.560024 0.055501 
0.852485 0.520423 0.049290 
0.873602 0.484606 0.044464 
0.890953 0.452288 0.040468 
0.905343 0.423064 0.037033 
0.917388 0.396537 0.034016 
0.927561 0.372357 0.031335 
0.936215 0.350235 0.028931 
0.943621 0.329943 0.026764 
0.949987 0.311302 0.024804 
0.955475 0.294174 0.023027 
0.960211 0.278452 0.021417 
0.964302 0.264050 0.019960 
0.967835 0.250894 0.018645 
0.970884 0.238914 0.017462 
0.973513 0.228041 0.016401 
0.975782 0.218199 0.015453 
0.977740 0.209311 0.014610 
0.979433 0.201295 0.013861 
0.980900 0.194066 0.013198 
0.982176 0.187538 0.012612 
0.983293 0.181627 0.012093 
0.984276 0.176253 0.011634 
0.985148 0.171341 0.011228 
0.985926 0.166826 0.010867 
0.986627 0.162653 0.010547 
0.987261 0.158777 0.010265 
0.987837 0.155173 0.010018 
0.988358 0.151831 0.009805 
0.988825 0.148769 0.009630 
0.989234 0.146033 0.009496 
0.989575 0.143714 0.009408 
0.989829 0.141956 0.009377 
0.989968 0.140979 0.009411 
0.989949 0.141106 0.009520 
0.989703 0.142804 0.009708 
0.989127 0.146728 0.009961 
0.988049 0.153800 0.010232 
0.986191 0.165286 0.010394 
0.983080 0.182896 0.010158 
0.977908 0.208845 0.008891 
0.969315 0.245766 0.005271 
0.955130 0.296169 -0.003301 
0.932455 0.360657 -0.021317 
0.899500 0.433557 -0.054113 
0.863383 0.494873 -0.098340 
0.654566 0.746115 0.121887 
0.692348 0.715429 0.093894 
0.735491 0.673634 0.072599 
0.774879 0.629333 0.059186 
0.808339 0.586537 0.050621 
0.836100 0.546757 0.044655 
0.859040 0.510337 0.040088 
0.878075 0.477142 0.036338 
0.893984 0.446872 0.033128 
0.907387 0.419202 0.030314 
0.918761 0.393833 0.027812 
0.928476 0.370512 0.025569 
0.936813 0.349037 0.023546 
0.943992 0.329252 0.021716 
0.950187 0.311035 0.020059 
0.955535 0.294294 0.018559 
0.960151 0.278951 0.017205 
0.964132 0.264941 0.015987 
0.967562 0.252195 0.014895 
0.970514 0.240643 0.013922 
0.973053 0.230209 0.013059 
0.975239 0.220811 0.012297 
0.977123 0.212357 0.011626 
0.978751 0.204757 0.011038 
0.980162 0.197917 0.010523 
0.981393 0.191745 0.010074 
0.982473 0.186154 0.009681 
0.983427 0.181065 0.009339 
0.984275 0.176409 0.009042 
0.985035 0.172128 0.008784 
0.985719 0.168181 0.008563 
0.986334 0.164546 0.008377 
0.986884 0.161223 0.008227 
0.987367 0.158244 0.008115 
0.987775 0.155680 0.008045 
0.988092 0.153653 0.008024 
0.988293 0.152357 0.008058 
0.988335 0.152080 0.008154 
0.988154 0.153243 0.008315 
0.987649 0.156447 0.008532 
0.986663 0.162539 0.008771 
0.984934 0.172700 0.008948 
0.982026 0.188539 0.008883 
0.977194 0.212190 0.008211 
0.969171 0.246310 0.006217 
0.955868 0.293792 0.001545 
0.934165 0.356746 -0.008256 
0.900509 0.433994 -0.027090 
0.854271 0.516455 -0.059124 
0.807438 0.581342 -0.100429 
0.635635 0.763013 0.117380 
0.673403 0.733779 0.089980 
0.717012 0.693633 0.069041 
0.757395 0.650564 0.055845 
0.792199 0.608415 0.047456 
0.821454 0.568751 0.041658 
0.845902 0.532036 0.037249 
0.866379 0.498252 0.033646 
0.883626 0.467194 0.030567 
0.898247 0.438606 0.027869 
0.910717 0.412244 0.025470 
0.921408 0.387896 0.023317 
0.930609 0.365390 0.021374 
0.938546 0.344595 0.019616 
0.945400 0.325412 0.018025 
0.951318 0.307765 0.016587 
0.956422 0.291589 0.015291 
0.960817 0.276825 0.014130 
0.964595 0.263409 0.013095 
0.967839 0.251274 0.012177 
0.970623 0.240338 0.011368 
0.973011 0.230514 0.010660 
0.975062 0.221706 0.010043 
0.976828 0.213814 0.009507 
0.978355 0.206737 0.009044 
0.979681 0.200376 0.008644 
0.980840 0.194638 0.008301 
0.981860 0.189440 0.008007 
0.982763 0.184710 0.007757 
0.983566 0.180390 0.007547 
0.984283 0.176444 0.007374 
0.984921 0.172855 0.007236 
0.985481 0.169637 0.007135 
0.985959 0.166841 0.007074 
0.986341 0.164565 0.007055 
0.986605 0.162972 0.007084 
0.986713 0.162312 0.007166 
0.986607 0.162955 0.007302 
0.986193 0.165428 0.007485 
0.985330 0.170485 0.007688 
0.983787 0.179171 0.007849 
0.981183 0.192922 0.007842 
0.976882 0.213649 0.007426 
0.969812 0.243778 0.006163 
0.958195 0.286096 0.003288 
0.939274 0.343160 -0.002513 
0.909354 0.415808 -0.013403 
0.865163 0.500431 -0.032570 
0.808283 0.585398 -0.063155 
0.754595 0.648340 -0.101198 
0.619490 0.776733 0.113656 
0.657297 0.748606 0.086893 
0.701264 0.709804 0.066382 
0.742378 0.667847 0.053434 
0.778196 0.626392 0.045208 
0.808624 0.586996 0.039537 
0.834299 0.550185 0.035238 
0.855988 0.516022 0.031732 
0.874388 0.484376 0.028737 
0.890080 0.455056 0.026112 
0.903529 0.427867 0.023775 
0.915102 0.402640 0.021675 
0.925088 0.379236 0.019778 
0.933718 0.357555 0.018061 
0.941174 0.337519 0.016508 
0.947611 0.319071 0.015106 
0.953156 0.302161 0.013847 
0.957924 0.286740 0.012721 
0.962014 0.272749 0.011723 
0.965516 0.260119 0.010844 
0.968511 0.248768 0.010075 
0.971072 0.238602 0.009407 
0.973264 0.229519 0.008830 
0.975145 0.221411 0.008335 
0.976765 0.214169 0.007912 
0.978166 0.207688 0.007553 
0.979386 0.201870 0.007250 
0.980453 0.196628 0.006996 
0.981393 0.191889 0.006785 
0.982224 0.187598 0.006614 
0.982957 0.183722 0.006480 
0.983599 0.180257 0.006383 
0.984149 0.177230 0.006323 
0.984598 0.174717 0.006303 
0.984928 0.172849 0.006325 
0.985105 0.171836 0.006392 
0.985077 0.171992 0.006505 
0.984763 0.173775 0.006658 
0.984037 0.177832 0.006828 
0.982700 0.185071 0.006970 
0.980432 0.196733 0.006987 
0.976706 0.214475 0.006707 
0.970651 0.240420 0.005830 
0.960839 0.277082 0.003869 
0.945021 0.327009 0.000053 
0.919996 0.391869 -0.006805 
0.882076 0.470744 -0.018491 
0.829127 0.557800 -0.037513 
0.765174 0.640401 -0.066291 
0.708243 0.698674 -0.101225 
0.605749 0.787942 0.110526 
0.643609 0.760691 0.084363 
0.687858 0.722994 0.064274 
0.729527 0.682005 0.051570 
0.766125 0.641218 0.043492 
0.797481 0.602151 0.037925 
0.824157 0.565358 0.033708 
0.846861 0.530953 0.030270 
0.866250 0.498863 0.027333 
0.882878 0.468950 0.024756 
0.897195 0.441064 0.022458 
0.909558 0.415077 0.020390 
0.920253 0.390886 0.018521 
0.929508 0.368419 0.016828 
0.937509 0.347626 0.015297 
0.944412 0.328469 0.013917 
0.950353 0.310916 0.012680 
0.955450 0.294925 0.011580 
0.959812 0.280443 0.010609 
0.963536 0.267402 0.009759 
0.966710 0.255717 0.009021 
0.969414 0.245287 0.008386 
0.971721 0.236003 0.007843 
0.973692 0.227750 0.007383 
0.975382 0.220411 0.006995 
0.976838 0.213875 0.006671 
0.978099 0.208040 0.006402 
0.979197 0.202816 0.006182 
0.980157 0.198130 0.006006 
0.980997 0.193932 0.005869 
0.981729 0.190196 0.005770 
0.982357 0.186930 0.005707 
0.982876 0.184183 0.005682 
0.983272 0.182054 0.005695 
0.983519 0.180716 0.005748 
0.983571 0.180430 0.005841 
0.983358 0.181582 0.005968 
0.982771 0.184724 0.006112 
0.981643 0.190627 0.006236 
0.979705 0.200347 0.006267 
0.976529 0.215298 0.006076 
0.971422 0.237298 0.005444 
0.963259 0.268545 0.004029 
0.950277 0.311403 0.001322 
0.929889 0.367823 -0.003396 
0.898794 0.438230 -0.011116 
0.853894 0.519928 -0.023236 
0.794635 0.605653 -0.041720 
0.726994 0.683208 -0.068601 
0.669448 0.735986 -0.100812 
0.594040 0.797170 0.107873 
0.631947 0.770635 0.082248 
0.676419 0.733856 0.062548 
0.718520 0.693702 0.050069 
0.755733 0.653523 0.042122 
0.787837 0.614793 0.036641 
0.815338 0.578073 0.032488 
0.838899 0.543509 0.029101 
0.859139 0.511070 0.026205 
0.876587 0.480661 0.023659 
0.891674 0.452173 0.021386 
0.904744 0.425516 0.019337 
0.916076 0.400624 0.017482 
0.925894 0.377454 0.015801 
0.934383 0.355984 0.014282 
0.941703 0.336198 0.012915 
0.947992 0.318079 0.011694 
0.953377 0.301597 0.010613 
0.957971 0.286703 0.009663 
0.961880 0.273328 0.008837 
0.965201 0.261383 0.008126 
0.968020 0.250762 0.007520 
0.970414 0.241347 0.007008 
0.972451 0.233015 0.006578 
0.974190 0.225643 0.006222 
0.975682 0.219113 0.005929 
0.976966 0.213319 0.005691 
0.978077 0.208171 0.005502 
0.979040 0.203599 0.005357 
0.979872 0.199556 0.005250 
0.980585 0.196028 0.005182 
0.981178 0.193037 0.005149 
0.981644 0.190655 0.005153 
0.981961 0.189014 0.005192 
0.982092 0.188328 0.005267 
0.981978 0.188916 0.005372 
0.981528 0.191242 0.005493 
0.980597 0.195953 0.005602 
0.978967 0.203939 0.005643 
0.976291 0.216391 0.005517 
0.972019 0.234849 0.005060 
0.965275 0.261205 0.004018 
0.954696 0.297575 0.002024 
0.938258 0.345932 -0.001411 
0.913238 0.407368 -0.006905 
0.876608 0.480964 -0.015226 
0.826255 0.562629 -0.027427 
0.763176 0.644614 -0.045115 
0.694473 0.716087 -0.070191 
0.637912 0.763571 -0.100138 
0.584033 0.804830 0.105614 
0.621975 0.778892 0.080464 
0.666624 0.742885 0.061110 
0.709070 0.703445 0.048832 
0.746781 0.663805 0.041001 
0.779500 0.625390 0.035592 
0.807695 0.588760 0.031490 
0.831988 0.554079 0.028140 
0.852969 0.521349 0.025271 
0.871140 0.490507 0.022746 
0.886913 0.461483 0.020486 
0.900617 0.434221 0.018445 
0.912522 0.408691 0.016595 
0.922845 0.384884 0.014919 
0.931770 0.362802 0.013405 
0.939457 0.342455 0.012045 
0.946050 0.323840 0.010834 
0.951680 0.306938 0.009766 
0.956468 0.291703 0.008835 
0.960528 0.278066 0.008031 
0.963964 0.265932 0.007345 
0.966868 0.255189 0.006765 
0.969323 0.245709 0.006280 
0.971404 0.237361 0.005880 
0.973171 0.230015 0.005553 
0.974678 0.223548 0.005289 
0.975968 0.217853 0.005080 
0.977075 0.212838 0.004920 
0.978024 0.208436 0.004802 
0.978832 0.204609 0.004724 
0.979507 0.201355 0.004681 
0.980046 0.198714 0.004674 
0.980436 0.196784 0.004701 
0.980646 0.195733 0.004760 
0.980628 0.195820 0.004846 
0.980305 0.197428 0.004948 
0.979559 0.201096 0.005044 
0.978208 0.207566 0.005091 
0.975972 0.217836 0.005013 
0.972417 0.233201 0.004686 
0.966862 0.255270 0.003917 
0.958257 0.285897 0.002430 
0.945040 0.326955 -0.000139 
0.925045 0.379833 -0.004228 
0.895648 0.444644 -0.010321 
0.854395 0.519278 -0.018966 
0.800283 0.598822 -0.030961 
0.735504 0.675837 -0.047731 
0.667489 0.741208 -0.071198 
0.612719 0.784034 -0.099322 
0.575449 0.811238 0.103684 
0.613415 0.785805 0.078950 
0.658205 0.750451 0.059901 
0.700934 0.711622 0.047801 
0.739059 0.672448 0.040070 
0.772297 0.634312 0.034722 
0.801086 0.597764 0.030659 
0.826017 0.562981 0.027336 
0.847652 0.529987 0.024485 
0.866468 0.498748 0.021969 
0.882857 0.469228 0.019713 
0.897133 0.441406 0.017673 
0.909553 0.415286 0.015821 
0.920329 0.390890 0.014142 
0.929641 0.368251 0.012627 
0.937649 0.347401 0.011269 
0.944502 0.328353 0.010066 
0.950336 0.311096 0.009010 
0.955281 0.295589 0.008094 
0.959458 0.281758 0.007310 
0.962977 0.269503 0.006647 
0.965938 0.258702 0.006093 
0.968431 0.249219 0.005636 
0.970532 0.240915 0.005263 
0.972307 0.233653 0.004964 
0.973812 0.227305 0.004728 
0.975091 0.221761 0.004546 
0.976177 0.216932 0.004412 
0.977096 0.212756 0.004320 
0.977863 0.209205 0.004266 
0.978482 0.206290 0.004247 
0.978946 0.204074 0.004260 
0.979235 0.202683 0.004304 
0.979309 0.202322 0.004373 
0.979106 0.203301 0.004459 
0.978528 0.206065 0.004543 
0.977426 0.211229 0.004593 
0.975574 0.219622 0.004550 
0.972628 0.232327 0.004321 
0.968057 0.250702 0.003757 
0.961053 0.276352 0.002647 
0.950415 0.310983 0.000709 
0.934453 0.356080 -0.002396 
0.911005 0.412336 -0.007023 
0.877756 0.478918 -0.013514 
0.832988 0.552844 -0.022236 
0.776701 0.628960 -0.033830 
0.711799 0.700625 -0.049668 
0.645480 0.760398 -0.071766 
0.592793 0.799314 -0.098452 
0.568056 0.816641 0.102032 
0.606037 0.791637 0.077659 
0.650944 0.756839 0.058878 
0.693911 0.718529 0.046934 
0.732391 0.679750 0.039291 
0.766079 0.641847 0.033993 
0.795389 0.605358 0.029960 
0.820888 0.570467 0.026655 
0.843109 0.537215 0.023813 
0.862508 0.505594 0.021299 
0.879456 0.475599 0.019039 
0.894251 0.447243 0.016991 
0.907137 0.420564 0.015130 
0.918317 0.395618 0.013443 
0.927969 0.372467 0.011922 
0.936254 0.351165 0.010565 
0.943324 0.331741 0.009365 
0.949323 0.314192 0.008320 
0.954388 0.298477 0.007420 
0.958647 0.284519 0.006655 
0.962220 0.272208 0.006016 
0.965212 0.261412 0.005487 
0.967717 0.251988 0.005056 
0.969818 0.243785 0.004710 
0.971582 0.236661 0.004438 
0.973067 0.230484 0.004228 
0.974317 0.225143 0.004072 
0.975367 0.220552 0.003962 
0.976240 0.216656 0.003893 
0.976949 0.213439 0.003861 
0.977494 0.210928 0.003861 
0.977863 0.209210 0.003890 
0.978027 0.208441 0.003944 
0.977936 0.208868 0.004015 
0.977509 0.210852 0.004088 
0.976628 0.214897 0.004138 
0.975109 0.221689 0.004121 
0.972677 0.232130 0.003964 
0.968917 0.247359 0.003554 
0.963207 0.268748 0.002728 
0.954622 0.297818 0.001266 
0.941853 0.336023 -0.001105 
0.923170 0.384364 -0.004673 
0.896560 0.442816 -0.009701 
0.860163 0.509756 -0.016398 
0.813009 0.581714 -0.025002 
0.755855 0.653744 -0.036087 
0.691876 0.720209 -0.051051 
0.627726 0.775095 -0.072021 
0.577117 0.810810 -0.097590 
0.561663 0.821226 0.100613 
0.599654 0.796589 0.076556 
0.644661 0.762264 0.058009 
0.687838 0.724392 0.046202 
0.726630 0.685941 0.038634 
0.760721 0.648220 0.033378 
0.790501 0.611756 0.029368 
0.816514 0.576736 0.026073 
0.839272 0.543216 0.023232 
0.859206 0.511211 0.020712 
0.876666 0.480745 0.018441 
0.891935 0.451867 0.016378 
0.905242 0.424649 0.014502 
0.916782 0.399182 0.012802 
0.926730 0.375558 0.011273 
0.935249 0.353852 0.009912 
0.942495 0.334107 0.008717 
0.948619 0.316327 0.007681 
0.953768 0.300468 0.006796 
0.958077 0.286446 0.006052 
0.961674 0.274143 0.005436 
0.964670 0.263415 0.004932 
0.967166 0.254107 0.004528 
0.969245 0.246061 0.004209 
0.970980 0.239127 0.003963 
0.972428 0.233172 0.003778 
0.973635 0.228084 0.003646 
0.974633 0.223781 0.003559 
0.975444 0.220218 0.003511 
0.976078 0.217391 0.003496 
0.976531 0.215347 0.003512 
0.976784 0.214198 0.003552 
0.976798 0.214132 0.003609 
0.976510 0.215439 0.003672 
0.975824 0.218528 0.003720 
0.974591 0.223963 0.003719 
0.972593 0.232487 0.003615 
0.969503 0.245055 0.003321 
0.964839 0.262829 0.002710 
0.957887 0.287140 0.001609 
0.947638 0.319346 -0.000201 
0.932725 0.360575 -0.002961 
0.911475 0.411297 -0.006902 
0.882138 0.470833 -0.012189 
0.843369 0.537001 -0.018926 
0.794849 0.606194 -0.027278 
0.737802 0.673957 -0.037817 
0.675356 0.735656 -0.052006 
0.613503 0.786397 -0.072067 
0.564818 0.819522 -0.096775 
0.556115 0.825141 0.099392 
0.594115 0.800819 0.075609 
0.639213 0.766894 0.057268 
0.682580 0.729388 0.045581 
0.721659 0.691200 0.038078 
0.756120 0.653608 0.032856 
0.786334 0.617127 0.028861 
0.812826 0.581945 0.025570 
0.836083 0.548132 0.022722 
0.856515 0.515727 0.020189 
0.874451 0.484783 0.017899 
0.890155 0.455383 0.015816 
0.903843 0.427638 0.013920 
0.915702 0.401673 0.012203 
0.925903 0.377610 0.010663 
0.934613 0.355544 0.009298 
0.941994 0.335533 0.008106 
0.948205 0.317581 0.007080 
0.953401 0.301642 0.006212 
0.957728 0.287622 0.005489 
0.961320 0.275390 0.004897 
0.964296 0.264790 0.004420 
0.966759 0.255656 0.004042 
0.968799 0.247820 0.003750 
0.970487 0.241128 0.003529 
0.971883 0.235442 0.003369 
0.973030 0.230655 0.003259 
0.973962 0.226689 0.003193 
0.974697 0.223509 0.003163 
0.975240 0.221126 0.003163 
0.975583 0.219609 0.003189 
0.975698 0.219097 0.003234 
0.975537 0.219811 0.003286 
0.975023 0.222081 0.003331 
0.974037 0.226364 0.003342 
0.972406 0.233274 0.003275 
0.969871 0.243601 0.003066 
0.966054 0.258326 0.002617 
0.960407 0.278595 0.001791 
0.952146 0.305642 0.000414 
0.940205 0.340605 -0.001718 
0.923224 0.384233 -0.004810 
0.899669 0.436479 -0.009023 
0.868123 0.496138 -0.014439 
0.827741 0.560715 -0.021088 
0.778692 0.626731 -0.029110 
0.722413 0.690354 -0.039115 
0.661790 0.747839 -0.052640 
0.602162 0.795122 -0.071983 
0.555184 0.826165 -0.096033 
0.551286 0.828501 0.098338 
0.589296 0.804447 0.074796 
0.634482 0.770860 0.056635 
0.678030 0.733652 0.045053 
0.717381 0.695665 0.037605 
0.752192 0.658146 0.032410 
0.782820 0.621599 0.028424 
0.809766 0.586215 0.025129 
0.833497 0.552075 0.022269 
0.854400 0.519242 0.019715 
0.872782 0.487801 0.017400 
0.888887 0.457872 0.015290 
0.902918 0.429604 0.013370 
0.915055 0.403160 0.011633 
0.925469 0.378690 0.010080 
0.934327 0.356311 0.008711 
0.941801 0.336088 0.007523 
0.948060 0.318026 0.006509 
0.953269 0.302071 0.005658 
0.957582 0.288117 0.004958 
0.961142 0.276019 0.004392 
0.964073 0.265608 0.003942 
0.966484 0.256703 0.003592 
0.968465 0.249129 0.003326 
0.970090 0.242727 0.003130 
0.971418 0.237358 0.002993 
0.972492 0.232917 0.002904 
0.973344 0.229334 0.002856 
0.973987 0.226585 0.002841 
0.974424 0.224700 0.002853 
0.974638 0.223767 0.002885 
0.974595 0.223954 0.002928 
0.974235 0.225517 0.002968 
0.973464 0.228823 0.002985 
0.972143 0.234372 0.002945 
0.970068 0.242818 0.002799 
0.966943 0.254980 0.002470 
0.962341 0.271838 0.001854 
0.955656 0.294483 0.000809 
0.946055 0.324004 -0.000832 
0.932454 0.361275 -0.003251 
0.913559 0.406653 -0.006606 
0.888037 0.459640 -0.010993 
0.854826 0.518655 -0.016428 
0.813505 0.581107 -0.022900 
0.764563 0.643824 -0.030559 
0.709454 0.703612 -0.040071 
0.650732 0.757453 -0.053045 
0.593151 0.801880 -0.071828 
0.547654 0.831251 -0.095376 
0.547073 0.831396 0.097428 
0.585098 0.807571 0.074096 
0.630374 0.774263 0.056092 
0.674101 0.737291 0.044602 
0.713719 0.699444 0.037202 
0.748872 0.661940 0.032027 
0.779902 0.625273 0.028044 
0.807289 0.589637 0.024739 
0.831479 0.555126 0.021858 
0.852833 0.521828 0.019277 
0.871635 0.489863 0.016931 
0.888111 0.459391 0.014789 
0.902451 0.430602 0.012840 
0.914826 0.403696 0.011081 
0.925408 0.378853 0.009515 
0.934372 0.356206 0.008141 
0.941898 0.335828 0.006958 
0.948166 0.317720 0.005958 
0.953352 0.301816 0.005129 
0.957621 0.287995 0.004453 
0.961122 0.276095 0.003914 
0.963986 0.265930 0.003492 
0.966324 0.257309 0.003170 
0.968229 0.250048 0.002930 
0.969776 0.243982 0.002759 
0.971022 0.238974 0.002644 
0.972011 0.234922 0.002574 
0.972768 0.231766 0.002542 
0.973307 0.229495 0.002539 
0.973621 0.228155 0.002559 
0.973690 0.227860 0.002592 
0.973469 0.228804 0.002627 
0.972885 0.231274 0.002646 
0.971828 0.235676 0.002626 
0.970137 0.242543 0.002525 
0.967579 0.252557 0.002286 
0.963820 0.266547 0.001827 
0.958389 0.285462 0.001037 
0.950637 0.310304 -0.000222 
0.939706 0.341978 -0.002106 
0.924533 0.381073 -0.004765 
0.903940 0.427578 -0.008311 
0.876830 0.480631 -0.012784 
0.842471 0.538436 -0.018152 
0.800770 0.598475 -0.024394 
0.752379 0.657967 -0.031688 
0.698647 0.714305 -0.040764 
0.641772 0.765042 -0.053289 
0.586021 0.807123 -0.071640 
0.541786 0.835152 -0.094809 
0.543392 0.833898 0.096640 
0.581439 0.810264 0.073492 
0.626812 0.777182 0.055627 
0.670725 0.740387 0.044217 
0.710612 0.702619 0.036856 
0.746108 0.665070 0.031695 
0.777539 0.628224 0.027709 
0.805364 0.592279 0.024387 
0.830003 0.557345 0.021479 
0.851794 0.523537 0.018863 
0.870996 0.491015 0.016479 
0.887814 0.459980 0.014301 
0.902426 0.430670 0.012319 
0.914998 0.403320 0.010537 
0.925706 0.378139 0.008957 
0.934731 0.355276 0.007582 
0.942266 0.334804 0.006407 
0.948505 0.316717 0.005424 
0.953634 0.300933 0.004617 
0.957829 0.287312 0.003969 
0.961246 0.275672 0.003459 
0.964020 0.265812 0.003067 
0.966267 0.257528 0.002773 
0.968080 0.250628 0.002559 
0.969535 0.244943 0.002412 
0.970687 0.240337 0.002317 
0.971576 0.236715 0.002265 
0.972228 0.234027 0.002246 
0.972647 0.232276 0.002253 
0.972826 0.231527 0.002275 
0.972733 0.231917 0.002304 
0.972314 0.233667 0.002324 
0.971484 0.237095 0.002316 
0.970115 0.242637 0.002248 
0.968023 0.250852 0.002076 
0.964948 0.262436 0.001736 
0.960521 0.278206 0.001140 
0.954235 0.299057 0.000178 
0.945415 0.325866 -0.001284 
0.933202 0.359336 -0.003381 
0.916595 0.399769 -0.006230 
0.894561 0.446835 -0.009899 
0.866244 0.499413 -0.014382 
0.831198 0.555630 -0.019624 
0.789550 0.613151 -0.025608 
0.741996 0.669614 -0.032558 
0.689709 0.722910 -0.041260 
0.634556 0.771028 -0.053426 
0.580408 0.811185 -0.071448 
0.537241 0.838137 -0.094332 
0.540178 0.836062 0.095958 
0.578256 0.812585 0.072973 
0.623738 0.779680 0.055229 
0.667846 0.743004 0.043888 
0.708013 0.705252 0.036560 
0.743862 0.667595 0.031406 
0.775701 0.630505 0.027410 
0.803967 0.594187 0.024064 
0.829054 0.558769 0.021121 
0.851271 0.524401 0.018464 
0.870853 0.491282 0.016036 
0.887985 0.459665 0.013815 
0.902832 0.429832 0.011799 
0.915559 0.402059 0.009993 
0.926346 0.376581 0.008401 
0.935386 0.353558 0.007026 
0.942888 0.333059 0.005863 
0.949058 0.315065 0.004900 
0.954096 0.299472 0.004120 
0.958188 0.286119 0.003502 
0.961496 0.274803 0.003023 
0.964161 0.265305 0.002662 
0.966300 0.257409 0.002396 
0.968007 0.250915 0.002209 
0.969356 0.245652 0.002084 
0.970402 0.241488 0.002009 
0.971181 0.238334 0.001972 
0.971714 0.236151 0.001964 
0.972003 0.234959 0.001976 
0.972032 0.234841 0.001997 
0.971761 0.235958 0.002016 
0.971127 0.238555 0.002016 
0.970030 0.242978 0.001972 
0.968325 0.249686 0.001850 
0.965807 0.259256 0.001599 
0.962189 0.272382 0.001150 
0.957072 0.289849 0.000416 
0.949926 0.312473 -0.000714 
0.940065 0.340987 -0.002359 
0.926657 0.375879 -0.004634 
0.908787 0.417190 -0.007622 
0.885588 0.464334 -0.011352 
0.856425 0.516030 -0.015788 
0.821076 0.570438 -0.020865 
0.779794 0.625471 -0.026587 
0.733236 0.679162 -0.033224 
0.682376 0.729816 -0.041612 
0.628787 0.775736 -0.053495 
0.576026 0.814319 -0.071268 
0.533756 0.840404 -0.093941 
0.537375 0.837933 0.095370 
0.575497 0.814582 0.072526 
0.621103 0.781805 0.054889 
0.665425 0.745190 0.043607 
0.705889 0.707391 0.036304 
0.742108 0.669556 0.031152 
0.774369 0.632152 0.027138 
0.803086 0.595389 0.023760 
0.828624 0.559420 0.020775 
0.851260 0.524432 0.018069 
0.871203 0.490675 0.015591 
0.888618 0.458454 0.013324 
0.903660 0.428102 0.011272 
0.916495 0.399934 0.009441 
0.927312 0.374206 0.007840 
0.936321 0.351086 0.006469 
0.943744 0.330633 0.005322 
0.949807 0.312807 0.004384 
0.954721 0.297481 0.003635 
0.958682 0.284465 0.003050 
0.961858 0.273535 0.002605 
0.964395 0.264455 0.002275 
0.966410 0.256995 0.002038 
0.967998 0.250951 0.001876 
0.969230 0.246150 0.001773 
0.970159 0.242463 0.001715 
0.970818 0.239811 0.001691 
0.971223 0.238167 0.001691 
0.971369 0.237568 0.001705 
0.971235 0.238116 0.001721 
0.970773 0.239993 0.001725 
0.969907 0.243468 0.001698 
0.968525 0.248910 0.001612 
0.966465 0.256793 0.001428 
0.963501 0.267702 0.001092 
0.959322 0.282313 0.000533 
0.953510 0.301362 -0.000338 
0.945518 0.325565 -0.001623 
0.934670 0.355500 -0.003428 
0.920181 0.391449 -0.005844 
0.901242 0.433224 -0.008923 
0.877149 0.480051 -0.012662 
0.847462 0.530584 -0.017009 
0.812114 0.583088 -0.021901 
0.771410 0.635749 -0.027371 
0.725920 0.686952 -0.033732 
0.676414 0.735331 -0.041861 
0.624217 0.779415 -0.053524 
0.572648 0.816711 -0.071112 
0.531131 0.842101 -0.093631 
0.534943 0.839546 0.094864 
0.573121 0.816289 0.072144 
0.618872 0.783592 0.054600 
0.663431 0.746980 0.043368 
0.704217 0.709067 0.036083 
0.740830 0.670981 0.030924 
0.773535 0.633183 0.026886 
0.802719 0.595895 0.023468 
0.828713 0.559301 0.020432 
0.851762 0.523632 0.017669 
0.872045 0.489192 0.015134 
0.889709 0.456349 0.012818 
0.904902 0.425486 0.010728 
0.917794 0.396957 0.008876 
0.928590 0.371037 0.007269 
0.937516 0.347891 0.005908 
0.944817 0.327564 0.004782 
0.950733 0.309987 0.003874 
0.955491 0.295004 0.003159 
0.959294 0.282396 0.002611 
0.962319 0.271915 0.002201 
0.964711 0.263306 0.001903 
0.966588 0.256328 0.001696 
0.968045 0.250772 0.001559 
0.969150 0.246468 0.001476 
0.969952 0.243291 0.001433 
0.970482 0.241171 0.001420 
0.970748 0.240097 0.001424 
0.970742 0.240119 0.001436 
0.970434 0.241361 0.001442 
0.969768 0.244024 0.001427 
0.968657 0.248398 0.001368 
0.966975 0.254868 0.001234 
0.964545 0.263918 0.000983 
0.961121 0.276126 0.000558 
0.956376 0.292140 -0.000111 
0.949875 0.312628 -0.001112 
0.941072 0.338197 -0.002537 
0.929312 0.369268 -0.004477 
0.913878 0.405930 -0.006996 
0.894071 0.447811 -0.010122 
0.869341 0.494020 -0.013831 
0.839400 0.543214 -0.018060 
0.804282 0.593812 -0.022761 
0.764287 0.644268 -0.027998 
0.719870 0.693269 -0.034120 
0.671617 0.739705 -0.042039 
0.620649 0.782259 -0.053532 
0.570097 0.818505 -0.070986 
0.529210 0.843335 -0.093396 
0.532848 0.840925 0.094432 
0.571100 0.817733 0.071820 
0.617021 0.785068 0.054355 
0.661845 0.748397 0.043165 
0.702985 0.710299 0.035890 
0.740023 0.671880 0.030718 
0.773200 0.633602 0.026646 
0.802871 0.595702 0.023178 
0.829328 0.558401 0.020082 
0.852781 0.521983 0.017254 
0.873380 0.486818 0.014658 
0.891254 0.453338 0.012290 
0.906547 0.421981 0.010163 
0.919442 0.393138 0.008292 
0.930160 0.367094 0.006685 
0.938953 0.344005 0.005339 
0.946085 0.323890 0.004242 
0.951817 0.306649 0.003369 
0.956388 0.292087 0.002693 
0.960010 0.279957 0.002183 
0.962863 0.269984 0.001810 
0.965095 0.261896 0.001546 
0.966823 0.255443 0.001367 
0.968138 0.250413 0.001254 
0.969108 0.246636 0.001190 
0.969775 0.243997 0.001161 
0.970167 0.242435 0.001155 
0.970287 0.241955 0.001161 
0.970120 0.242622 0.001167 
0.969629 0.244579 0.001160 
0.968748 0.248045 0.001120 
0.967380 0.253326 0.001024 
0.965387 0.260819 0.000837 
0.962576 0.271010 0.000516 
0.958688 0.284458 0.000002 
0.953380 0.301770 -0.000776 
0.946213 0.323538 -0.001897 
0.936650 0.350250 -0.003444 
0.924073 0.382176 -0.005490 
0.907838 0.419242 -0.008079 
0.887361 0.460938 -0.011216 
0.862223 0.506311 -0.014863 
0.832249 0.554078 -0.018959 
0.797523 0.602832 -0.023473 
0.758305 0.651277 -0.028499 
0.714929 0.698350 -0.034419 
0.667814 0.743132 -0.042169 