# OOMMF: rectangular mesh v0.99 
# Segment count: 1 
# Begin: Segment 
# Begin: Header 
# Title: model.omf 
# Desc: 
# meshunit: unknown 
# xbase: 0 
# ybase: 0 
# zbase: 0 
# xstepsize: 1
# ystepsize: 1 
# zstepsize: 1 
# xnodes: 50 
# ynodes: 50 
# znodes: 4 
# xmin: -0.5 
# ymin: -0.5 
# zmin: -0.5 
# xmax: 49.500000 
# ymax: 49.500000 
# zmax: 3.500000 
# valueunit: Ms 
# valuemultiplier: 1 
# ValueRangeMaxMag:  1. 
# ValueRangeMinMag:  1e-8 
# End: Header 
# Begin: data text 
0.753311 0.639106 0.155131 
0.790505 0.597101 0.136283 
0.826750 0.549767 0.119336 
0.856873 0.504507 0.106026 
0.880891 0.463585 0.095496 
0.899899 0.427359 0.086863 
0.915025 0.395474 0.079557 
0.927190 0.367362 0.073241 
0.937094 0.342450 0.067704 
0.945257 0.320227 0.062801 
0.952063 0.300270 0.058426 
0.957796 0.282235 0.054494 
0.962667 0.265851 0.050942 
0.966834 0.250908 0.047718 
0.970417 0.237244 0.044783 
0.973510 0.224733 0.042107 
0.976186 0.213279 0.039666 
0.978504 0.202801 0.037441 
0.980514 0.193231 0.035416 
0.982257 0.184507 0.033576 
0.983771 0.176569 0.031908 
0.985086 0.169357 0.030398 
0.986230 0.162809 0.029034 
0.987229 0.156863 0.027801 
0.988104 0.151456 0.026688 
0.988873 0.146526 0.025680 
0.989555 0.142014 0.024766 
0.990162 0.137862 0.023934 
0.990708 0.134020 0.023172 
0.991202 0.130439 0.022474 
0.991652 0.127083 0.021829 
0.992065 0.123921 0.021234 
0.992445 0.120934 0.020685 
0.992795 0.118115 0.020182 
0.993115 0.115474 0.019726 
0.993402 0.113044 0.019326 
0.993652 0.110881 0.018991 
0.993857 0.109078 0.018737 
0.994002 0.107776 0.018584 
0.994067 0.107173 0.018554 
0.994025 0.107542 0.018668 
0.993834 0.109250 0.018931 
0.993435 0.112759 0.019298 
0.992747 0.118610 0.019604 
0.991670 0.127336 0.019393 
0.990104 0.139230 0.017582 
0.988027 0.153825 0.011835 
0.985621 0.168958 -0.002202 
0.983250 0.179706 -0.030423 
0.981010 0.180193 -0.071761 
0.728455 0.669733 0.144262 
0.766932 0.630562 0.119192 
0.806370 0.582908 0.099927 
0.839486 0.536420 0.086697 
0.865986 0.494079 0.077164 
0.887029 0.456412 0.069764 
0.903844 0.423099 0.063674 
0.917427 0.393585 0.058476 
0.928535 0.367306 0.053943 
0.937728 0.343761 0.049938 
0.945422 0.322532 0.046366 
0.951924 0.303279 0.043157 
0.957462 0.285737 0.040256 
0.962209 0.269699 0.037622 
0.966298 0.255005 0.035225 
0.969830 0.241532 0.033039 
0.972887 0.229186 0.031046 
0.975536 0.217888 0.029231 
0.977831 0.207570 0.027582 
0.979821 0.198168 0.026087 
0.981546 0.189620 0.024734 
0.983043 0.181861 0.023514 
0.984344 0.174827 0.022416 
0.985478 0.168449 0.021427 
0.986469 0.162658 0.020538 
0.987340 0.157388 0.019737 
0.988109 0.152572 0.019014 
0.988795 0.148149 0.018360 
0.989409 0.144063 0.017766 
0.989964 0.140264 0.017224 
0.990470 0.136711 0.016729 
0.990932 0.133373 0.016276 
0.991356 0.130234 0.015864 
0.991745 0.127289 0.015492 
0.992097 0.124557 0.015164 
0.992409 0.122080 0.014886 
0.992674 0.119934 0.014668 
0.992879 0.118238 0.014523 
0.993006 0.117173 0.014468 
0.993027 0.116993 0.014520 
0.992898 0.118056 0.014692 
0.992557 0.120853 0.014978 
0.991908 0.126029 0.015322 
0.990804 0.134406 0.015540 
0.989027 0.146952 0.015153 
0.986265 0.164659 0.013032 
0.982106 0.188211 0.006721 
0.976067 0.217304 -0.008471 
0.967610 0.249400 -0.039119 
0.957076 0.277334 -0.084214 
0.701617 0.699689 0.134791 
0.739842 0.664214 0.107022 
0.781247 0.618249 0.086145 
0.817166 0.571799 0.072695 
0.846449 0.528647 0.063684 
0.869985 0.489764 0.057075 
0.888961 0.455042 0.051818 
0.904404 0.424034 0.047407 
0.917114 0.396234 0.043592 
0.927691 0.371175 0.040231 
0.936583 0.348462 0.037236 
0.944125 0.327772 0.034544 
0.950569 0.308850 0.032110 
0.956104 0.291497 0.029900 
0.960878 0.275564 0.027888 
0.965005 0.260932 0.026054 
0.968578 0.247513 0.024384 
0.971671 0.235230 0.022867 
0.974348 0.224016 0.021491 
0.976666 0.213807 0.020249 
0.978672 0.204539 0.019130 
0.980408 0.196141 0.018127 
0.981914 0.188543 0.017228 
0.983223 0.181669 0.016426 
0.984364 0.175444 0.015709 
0.985364 0.169794 0.015069 
0.986246 0.164645 0.014497 
0.987029 0.159929 0.013985 
0.987730 0.155585 0.013524 
0.988361 0.151561 0.013110 
0.988933 0.147813 0.012737 
0.989455 0.144312 0.012403 
0.989930 0.141043 0.012106 
0.990360 0.138010 0.011848 
0.990744 0.135246 0.011632 
0.991075 0.132810 0.011465 
0.991342 0.130810 0.011356 
0.991527 0.129409 0.011317 
0.991599 0.128848 0.011362 
0.991516 0.129475 0.011503 
0.991209 0.131783 0.011742 
0.990573 0.136453 0.012058 
0.989439 0.144421 0.012367 
0.987531 0.156931 0.012446 
0.984394 0.175583 0.011752 
0.979284 0.202291 0.009062 
0.971020 0.238993 0.001794 
0.957922 0.286647 -0.014829 
0.938403 0.342317 -0.047101 
0.915301 0.391929 -0.092823 
0.676652 0.725173 0.127539 
0.714558 0.692504 0.099224 
0.757023 0.648737 0.077830 
0.794969 0.603231 0.064313 
0.826593 0.560049 0.055573 
0.852419 0.520521 0.049389 
0.873491 0.484793 0.044595 
0.890801 0.452574 0.040629 
0.905153 0.423453 0.037221 
0.917169 0.397025 0.034227 
0.927322 0.372933 0.031560 
0.935966 0.350881 0.029163 
0.943373 0.330635 0.026994 
0.949749 0.312012 0.025024 
0.955254 0.294873 0.023230 
0.960015 0.279113 0.021597 
0.964135 0.264648 0.020112 
0.967699 0.251408 0.018766 
0.970780 0.239329 0.017550 
0.973441 0.228346 0.016457 
0.975738 0.218392 0.015479 
0.977723 0.209392 0.014608 
0.979438 0.201270 0.013834 
0.980925 0.193943 0.013148 
0.982218 0.187327 0.012543 
0.983347 0.181340 0.012008 
0.984340 0.175903 0.011535 
0.985219 0.170941 0.011117 
0.986002 0.166388 0.010748 
0.986705 0.162190 0.010421 
0.987339 0.158302 0.010134 
0.987913 0.154697 0.009884 
0.988430 0.151367 0.009671 
0.988892 0.148329 0.009497 
0.989295 0.145631 0.009366 
0.989627 0.143361 0.009285 
0.989871 0.141665 0.009263 
0.990000 0.140762 0.009309 
0.989968 0.140977 0.009434 
0.989708 0.142774 0.009642 
0.989115 0.146812 0.009919 
0.988016 0.154012 0.010220 
0.986130 0.165648 0.010418 
0.982979 0.183432 0.010227 
0.977748 0.209588 0.009017 
0.969062 0.246755 0.005477 
0.954735 0.297443 -0.002983 
0.931853 0.362237 -0.020838 
0.898642 0.435417 -0.053418 
0.862310 0.496921 -0.097421 
0.654652 0.746032 0.121931 
0.692416 0.715357 0.093935 
0.735530 0.673587 0.072643 
0.774878 0.629329 0.059244 
0.808292 0.586595 0.050701 
0.836003 0.546896 0.044764 
0.858893 0.510572 0.040227 
0.877882 0.477484 0.036508 
0.893751 0.447324 0.033325 
0.907122 0.419760 0.030532 
0.918475 0.394483 0.028044 
0.928181 0.371234 0.025806 
0.936521 0.349804 0.023780 
0.943714 0.330033 0.021939 
0.949932 0.311799 0.020262 
0.955310 0.295010 0.018737 
0.959962 0.279593 0.017353 
0.963980 0.265486 0.016102 
0.967448 0.252627 0.014977 
0.970436 0.240954 0.013972 
0.973009 0.230395 0.013077 
0.975225 0.220873 0.012286 
0.977135 0.212303 0.011590 
0.978785 0.204596 0.010979 
0.980215 0.197660 0.010445 
0.981460 0.191407 0.009980 
0.982551 0.185749 0.009574 
0.983512 0.180607 0.009221 
0.984366 0.175911 0.008915 
0.985128 0.171605 0.008651 
0.985811 0.167647 0.008426 
0.986424 0.164015 0.008238 
0.986969 0.160708 0.008087 
0.987445 0.157760 0.007977 
0.987845 0.155240 0.007911 
0.988153 0.153272 0.007896 
0.988341 0.152048 0.007941 
0.988369 0.151859 0.008051 
0.988173 0.153123 0.008229 
0.987651 0.156444 0.008468 
0.986642 0.162668 0.008732 
0.984885 0.172978 0.008940 
0.981939 0.188987 0.008912 
0.977054 0.212832 0.008283 
0.968951 0.247173 0.006344 
0.955528 0.294897 0.001744 
0.933650 0.358098 -0.007958 
0.899763 0.435565 -0.026650 
0.853275 0.518171 -0.058494 
0.806260 0.583117 -0.099600 
0.635708 0.762945 0.117434 
0.673455 0.733725 0.090031 
0.717030 0.693609 0.069097 
0.757368 0.650590 0.055915 
0.792121 0.608509 0.047548 
0.821321 0.568934 0.041777 
0.845715 0.532323 0.037400 
0.866141 0.498653 0.033827 
0.883345 0.467711 0.030775 
0.897933 0.439234 0.028098 
0.910383 0.412967 0.025712 
0.921067 0.388690 0.023563 
0.930274 0.366227 0.021615 
0.938230 0.345442 0.019843 
0.945113 0.326235 0.018230 
0.951067 0.308530 0.016764 
0.956212 0.292267 0.015437 
0.960651 0.277394 0.014241 
0.964473 0.263853 0.013170 
0.967759 0.251582 0.012218 
0.970580 0.240509 0.011377 
0.973002 0.230551 0.010640 
0.975083 0.221616 0.009996 
0.976874 0.213609 0.009438 
0.978420 0.206431 0.008955 
0.979762 0.199983 0.008540 
0.980933 0.194175 0.008184 
0.981960 0.188922 0.007880 
0.982868 0.184152 0.007622 
0.983674 0.179809 0.007406 
0.984390 0.175853 0.007229 
0.985024 0.172271 0.007089 
0.985579 0.169074 0.006988 
0.986048 0.166315 0.006929 
0.986421 0.164092 0.006915 
0.986673 0.162568 0.006952 
0.986767 0.161993 0.007045 
0.986643 0.162736 0.007197 
0.986211 0.165328 0.007399 
0.985325 0.170518 0.007625 
0.983753 0.179356 0.007815 
0.981113 0.193276 0.007841 
0.976763 0.214194 0.007462 
0.969621 0.244531 0.006243 
0.957903 0.287073 0.003419 
0.938835 0.344358 -0.002316 
0.908722 0.417196 -0.013117 
0.864306 0.501937 -0.032160 
0.807218 0.586926 -0.062579 
0.753407 0.649836 -0.100450 
0.619543 0.776681 0.113721 
0.657327 0.748572 0.086954 
0.701256 0.709806 0.066448 
0.742320 0.667905 0.053515 
0.778082 0.626527 0.045312 
0.808450 0.587226 0.039669 
0.834067 0.550526 0.035401 
0.855702 0.516483 0.031925 
0.874058 0.484958 0.028957 
0.889717 0.455752 0.026352 
0.903147 0.428659 0.024027 
0.914716 0.403503 0.021929 
0.924713 0.380139 0.020026 
0.933366 0.358460 0.018293 
0.940857 0.338391 0.016716 
0.947336 0.319875 0.015284 
0.952930 0.302867 0.013990 
0.957748 0.287324 0.012828 
0.961887 0.273194 0.011792 
0.965435 0.260417 0.010877 
0.968473 0.248916 0.010074 
0.971071 0.238606 0.009376 
0.973295 0.229388 0.008772 
0.975203 0.221158 0.008255 
0.976844 0.213810 0.007813 
0.978262 0.207239 0.007438 
0.979494 0.201348 0.007122 
0.980570 0.196051 0.006858 
0.981515 0.191273 0.006640 
0.982346 0.186959 0.006463 
0.983078 0.183078 0.006326 
0.983716 0.179623 0.006227 
0.984259 0.176624 0.006168 
0.984699 0.174156 0.006150 
0.985017 0.172349 0.006178 
0.985179 0.171416 0.006254 
0.985134 0.171670 0.006380 
0.984800 0.173569 0.006550 
0.984051 0.177761 0.006743 
0.982686 0.185152 0.006911 
0.980382 0.196985 0.006959 
0.976609 0.214916 0.006714 
0.970491 0.241067 0.005876 
0.960589 0.277945 0.003958 
0.944648 0.328085 0.000191 
0.919459 0.393130 -0.006606 
0.881344 0.472123 -0.018212 
0.828201 0.559200 -0.037124 
0.764103 0.641734 -0.065760 
0.707107 0.699922 -0.100548 
0.605779 0.787908 0.110601 
0.643612 0.760680 0.084435 
0.687819 0.723024 0.064351 
0.729434 0.682098 0.051662 
0.765971 0.641394 0.043607 
0.797264 0.602429 0.038069 
0.823879 0.565753 0.033883 
0.846527 0.531473 0.030475 
0.865870 0.499508 0.027565 
0.882466 0.469711 0.025007 
0.896766 0.441922 0.022720 
0.909129 0.416003 0.020653 
0.919839 0.391847 0.018775 
0.929123 0.369376 0.017064 
0.937165 0.348541 0.015506 
0.944118 0.329305 0.014094 
0.950113 0.311641 0.012820 
0.955267 0.295515 0.011681 
0.959683 0.280882 0.010671 
0.963458 0.267682 0.009783 
0.966678 0.255837 0.009011 
0.969423 0.245253 0.008344 
0.971764 0.235827 0.007775 
0.973763 0.227446 0.007291 
0.975476 0.219997 0.006884 
0.976950 0.213369 0.006545 
0.978224 0.207459 0.006264 
0.979330 0.202180 0.006034 
0.980294 0.197457 0.005851 
0.981135 0.193239 0.005709 
0.981864 0.189501 0.005606 
0.982486 0.186251 0.005543 
0.982997 0.183538 0.005518 
0.983382 0.181462 0.005535 
0.983615 0.180196 0.005595 
0.983650 0.180002 0.005698 
0.983417 0.181265 0.005840 
0.982807 0.184539 0.006003 
0.981650 0.190593 0.006151 
0.979677 0.200485 0.006212 
0.976457 0.215625 0.006055 
0.971291 0.237831 0.005460 
0.963049 0.269294 0.004085 
0.949960 0.312367 0.001422 
0.929432 0.368978 -0.003247 
0.898167 0.439520 -0.010911 
0.853087 0.521263 -0.022958 
0.793680 0.606929 -0.041347 
0.725957 0.684360 -0.068106 
0.668394 0.737028 -0.100193 
0.594042 0.797157 0.107957 
0.631920 0.770648 0.082331 
0.676345 0.733917 0.062636 
0.718388 0.693831 0.050172 
0.755538 0.653741 0.042248 
0.787575 0.615119 0.036796 
0.815013 0.578521 0.032675 
0.838517 0.544086 0.029318 
0.858712 0.511776 0.026447 
0.876129 0.481483 0.023920 
0.891201 0.453092 0.021657 
0.904275 0.426500 0.019607 
0.915627 0.401637 0.017742 
0.925481 0.378455 0.016041 
0.934018 0.356932 0.014492 
0.941394 0.337056 0.013090 
0.947743 0.318814 0.011830 
0.953189 0.302184 0.010707 
0.957843 0.287127 0.009716 
0.961808 0.273581 0.008852 
0.965178 0.261467 0.008105 
0.968040 0.250685 0.007467 
0.970470 0.241122 0.006927 
0.972537 0.232657 0.006475 
0.974300 0.225172 0.006100 
0.975809 0.218548 0.005792 
0.977106 0.212680 0.005542 
0.978225 0.207478 0.005344 
0.979192 0.202871 0.005192 
0.980025 0.198812 0.005081 
0.980733 0.195286 0.005010 
0.981320 0.192318 0.004976 
0.981776 0.189977 0.004981 
0.982080 0.188398 0.005026 
0.982195 0.187795 0.005108 
0.982062 0.188488 0.005225 
0.981587 0.190939 0.005363 
0.980629 0.195798 0.005494 
0.978965 0.203953 0.005562 
0.976246 0.216594 0.005468 
0.971920 0.235259 0.005047 
0.965105 0.261834 0.004044 
0.954432 0.298423 0.002093 
0.937871 0.346983 -0.001297 
0.912699 0.408576 -0.006744 
0.875904 0.482251 -0.015012 
0.825401 0.563894 -0.027147 
0.762224 0.645764 -0.044752 
0.693492 0.717082 -0.069724 
0.636948 0.764450 -0.099566 
0.584006 0.804838 0.105706 
0.621915 0.778930 0.080555 
0.666514 0.742976 0.061207 
0.708899 0.703610 0.048945 
0.746543 0.664065 0.041137 
0.779193 0.625763 0.035758 
0.807322 0.589260 0.031687 
0.831558 0.554712 0.028367 
0.852495 0.522112 0.025524 
0.870637 0.491387 0.023016 
0.886399 0.462457 0.020765 
0.900111 0.435257 0.018722 
0.912042 0.409750 0.016860 
0.922407 0.385921 0.015160 
0.931387 0.363777 0.013614 
0.939137 0.343327 0.012217 
0.945796 0.324576 0.010964 
0.951493 0.307514 0.009853 
0.956345 0.292104 0.008879 
0.960464 0.278287 0.008035 
0.963952 0.265975 0.007312 
0.966901 0.255063 0.006700 
0.969395 0.245430 0.006189 
0.971506 0.236947 0.005765 
0.973297 0.229486 0.005420 
0.974822 0.222925 0.005141 
0.976124 0.217156 0.004921 
0.977239 0.212089 0.004752 
0.978191 0.207655 0.004628 
0.978999 0.203816 0.004545 
0.979669 0.200570 0.004501 
0.980200 0.197959 0.004494 
0.980578 0.196079 0.004523 
0.980773 0.195100 0.004587 
0.980736 0.195282 0.004682 
0.980390 0.197007 0.004798 
0.979617 0.200816 0.004913 
0.978233 0.207451 0.004984 
0.975957 0.217907 0.004936 
0.972351 0.233478 0.004644 
0.966731 0.255766 0.003914 
0.958041 0.286619 0.002470 
0.944715 0.327892 -0.000056 
0.924586 0.380952 -0.004100 
0.895036 0.445879 -0.010145 
0.853633 0.520537 -0.018740 
0.799408 0.600005 -0.030677 
0.734576 0.676870 -0.047375 
0.666573 0.742075 -0.070754 
0.611840 0.784788 -0.098788 
0.575389 0.811268 0.103783 
0.613321 0.785868 0.079049 
0.658058 0.750573 0.060007 
0.700722 0.711823 0.047923 
0.738777 0.672749 0.040216 
0.771945 0.634731 0.034897 
0.800667 0.598314 0.030866 
0.825542 0.563667 0.027572 
0.847133 0.530804 0.024747 
0.865923 0.499682 0.022248 
0.882305 0.470254 0.020000 
0.896595 0.442488 0.017955 
0.909047 0.416382 0.016088 
0.919871 0.391956 0.014384 
0.929244 0.369243 0.012834 
0.937322 0.348278 0.011437 
0.944247 0.329081 0.010189 
0.950153 0.311653 0.009087 
0.955166 0.295959 0.008128 
0.959405 0.281939 0.007303 
0.962978 0.269499 0.006603 
0.965986 0.258524 0.006017 
0.968518 0.248884 0.005532 
0.970650 0.240443 0.005137 
0.972449 0.233064 0.004820 
0.973972 0.226623 0.004570 
0.975262 0.221008 0.004377 
0.976356 0.216129 0.004235 
0.977277 0.211925 0.004137 
0.978042 0.208367 0.004080 
0.978656 0.205467 0.004059 
0.979110 0.203288 0.004073 
0.979386 0.201956 0.004120 
0.979443 0.201678 0.004196 
0.979218 0.202764 0.004292 
0.978614 0.205660 0.004392 
0.977480 0.210980 0.004462 
0.975590 0.219554 0.004447 
0.972596 0.232461 0.004250 
0.967965 0.251056 0.003724 
0.960885 0.276936 0.002656 
0.950150 0.311794 0.000762 
0.934066 0.357093 -0.002297 
0.910477 0.413503 -0.006878 
0.877081 0.480158 -0.013323 
0.832186 0.554060 -0.021997 
0.775822 0.630059 -0.033540 
0.710907 0.701555 -0.049316 
0.644627 0.761162 -0.071338 
0.591988 0.799973 -0.097947 
0.567963 0.816692 0.102137 
0.605907 0.791725 0.077765 
0.650758 0.756990 0.058991 
0.693658 0.718765 0.047064 
0.732065 0.680091 0.039445 
0.765682 0.642311 0.034177 
0.794926 0.605956 0.030176 
0.820368 0.571203 0.026901 
0.842548 0.538083 0.024083 
0.861924 0.506578 0.021586 
0.878870 0.476670 0.019332 
0.893684 0.448365 0.017278 
0.906608 0.421692 0.015399 
0.917844 0.396705 0.013684 
0.927564 0.373468 0.012127 
0.935924 0.352039 0.010726 
0.943072 0.332454 0.009481 
0.949147 0.314722 0.008388 
0.954283 0.298811 0.007442 
0.958607 0.284654 0.006636 
0.962236 0.272152 0.005959 
0.965275 0.261178 0.005398 
0.967820 0.251594 0.004941 
0.969952 0.243253 0.004573 
0.971740 0.236013 0.004284 
0.973243 0.229744 0.004061 
0.974504 0.224335 0.003894 
0.975561 0.219698 0.003777 
0.976435 0.215780 0.003703 
0.977141 0.212561 0.003667 
0.977679 0.210072 0.003667 
0.978037 0.208399 0.003697 
0.978185 0.207700 0.003756 
0.978074 0.208221 0.003834 
0.977624 0.210324 0.003920 
0.976713 0.214515 0.003987 
0.975157 0.221479 0.003993 
0.972680 0.232116 0.003865 
0.968866 0.247562 0.003491 
0.963085 0.269183 0.002706 
0.954413 0.298488 0.001288 
0.941534 0.336915 -0.001036 
0.922721 0.385441 -0.004557 
0.895970 0.444013 -0.009539 
0.859438 0.510984 -0.016191 
0.812184 0.582877 -0.024751 
0.754985 0.654764 -0.035790 
0.691023 0.721052 -0.050701 
0.626929 0.775779 -0.071606 
0.576373 0.811396 -0.097107 
0.561537 0.821299 0.100723 
0.599489 0.796703 0.076667 
0.644437 0.762445 0.058129 
0.687544 0.724662 0.046339 
0.726263 0.686322 0.038796 
0.760281 0.648727 0.033570 
0.789994 0.612400 0.029592 
0.815952 0.577520 0.026326 
0.838671 0.544131 0.023510 
0.858586 0.512239 0.021005 
0.876049 0.481857 0.018738 
0.891343 0.453022 0.016668 
0.904696 0.425802 0.014772 
0.916298 0.400284 0.013042 
0.926321 0.376561 0.011473 
0.934920 0.354715 0.010067 
0.942249 0.334797 0.008823 
0.948453 0.316822 0.007738 
0.953676 0.300758 0.006807 
0.958052 0.286531 0.006020 
0.961706 0.274031 0.005366 
0.964751 0.263122 0.004832 
0.967285 0.253652 0.004401 
0.969396 0.245468 0.004061 
0.971154 0.238421 0.003799 
0.972619 0.232376 0.003602 
0.973837 0.227223 0.003460 
0.974840 0.222880 0.003366 
0.975652 0.219299 0.003314 
0.976282 0.216477 0.003297 
0.976727 0.214463 0.003312 
0.976966 0.213368 0.003354 
0.976963 0.213382 0.003417 
0.976653 0.214795 0.003489 
0.975938 0.218017 0.003551 
0.974672 0.223612 0.003570 
0.972632 0.232324 0.003492 
0.969492 0.245103 0.003229 
0.964763 0.263107 0.002657 
0.957732 0.287657 0.001600 
0.947384 0.320099 -0.000163 
0.932352 0.361539 -0.002875 
0.910968 0.412422 -0.006767 
0.881494 0.472043 -0.012009 
0.842607 0.538205 -0.018703 
0.794012 0.607301 -0.027015 
0.736949 0.674906 -0.037514 
0.674541 0.736428 -0.051658 
0.612753 0.787018 -0.071663 
0.564124 0.820054 -0.096310 
0.555956 0.825234 0.099505 
0.593915 0.800956 0.075726 
0.638951 0.767103 0.057394 
0.682247 0.729691 0.045725 
0.721251 0.691617 0.038247 
0.755638 0.654155 0.033055 
0.785787 0.617813 0.029092 
0.812225 0.582773 0.025830 
0.835446 0.549091 0.023007 
0.855863 0.516796 0.020488 
0.873808 0.485930 0.018201 
0.889543 0.456567 0.016108 
0.903284 0.428809 0.014190 
0.915212 0.402782 0.012440 
0.925494 0.378607 0.010858 
0.934290 0.356389 0.009445 
0.941758 0.336192 0.008202 
0.948052 0.318035 0.007126 
0.953325 0.301883 0.006210 
0.957720 0.287651 0.005445 
0.961370 0.275218 0.004815 
0.964394 0.264435 0.004307 
0.966896 0.255140 0.003905 
0.968966 0.247167 0.003592 
0.970677 0.240364 0.003356 
0.972089 0.234593 0.003184 
0.973246 0.229745 0.003066 
0.974182 0.225743 0.002993 
0.974916 0.222552 0.002959 
0.975454 0.220182 0.002958 
0.975787 0.218704 0.002985 
0.975887 0.218254 0.003033 
0.975707 0.219059 0.003092 
0.975167 0.221448 0.003148 
0.974150 0.225878 0.003174 
0.972481 0.232963 0.003130 
0.969899 0.243492 0.002949 
0.966024 0.258441 0.002535 
0.960304 0.278950 0.001750 
0.951954 0.306241 0.000420 
0.939904 0.341435 -0.001663 
0.922797 0.385258 -0.004705 
0.899107 0.437640 -0.008869 
0.867433 0.497350 -0.014241 
0.826951 0.561887 -0.020850 
0.777853 0.627784 -0.028836 
0.721580 0.691242 -0.038807 
0.661009 0.748554 -0.052294 
0.601451 0.795696 -0.071588 
0.554529 0.826657 -0.095582 
0.551094 0.828614 0.098455 
0.589062 0.804608 0.074917 
0.634184 0.771096 0.056766 
0.677659 0.733986 0.045202 
0.716933 0.696117 0.037780 
0.751671 0.658731 0.032616 
0.782233 0.622326 0.028663 
0.809128 0.587083 0.025397 
0.832827 0.553073 0.022560 
0.853720 0.520347 0.020019 
0.872116 0.488979 0.017705 
0.888260 0.459078 0.015584 
0.902350 0.430787 0.013639 
0.914563 0.404268 0.011866 
0.925063 0.379674 0.010268 
0.934013 0.357129 0.008848 
0.941578 0.336709 0.007607 
0.947923 0.318433 0.006542 
0.953210 0.302257 0.005644 
0.957592 0.288087 0.004901 
0.961210 0.275785 0.004298 
0.964189 0.265190 0.003818 
0.966638 0.256125 0.003443 
0.968648 0.248417 0.003158 
0.970295 0.241907 0.002948 
0.971638 0.236457 0.002800 
0.972721 0.231961 0.002704 
0.973576 0.228348 0.002651 
0.974218 0.225595 0.002633 
0.974647 0.223730 0.002644 
0.974850 0.222845 0.002677 
0.974790 0.223106 0.002724 
0.974408 0.224771 0.002773 
0.973608 0.228208 0.002802 
0.972252 0.233918 0.002781 
0.970135 0.242552 0.002658 
0.966957 0.254930 0.002361 
0.962289 0.272024 0.001782 
0.955523 0.294917 0.000782 
0.945823 0.324682 -0.000811 
0.932104 0.362176 -0.003178 
0.913079 0.407730 -0.006481 
0.887426 0.460823 -0.010820 
0.854098 0.519859 -0.016212 
0.812698 0.582245 -0.022647 
0.763727 0.644829 -0.030275 
0.708641 0.704448 -0.039759 
0.649979 0.758122 -0.052701 
0.592472 0.802417 -0.071441 
0.547029 0.831713 -0.094938 
0.546850 0.831529 0.097546 
0.584830 0.807753 0.074220 
0.630040 0.774524 0.056228 
0.673693 0.737655 0.044757 
0.713234 0.699929 0.037383 
0.748314 0.662561 0.032239 
0.779279 0.626038 0.028289 
0.806618 0.590543 0.025013 
0.830779 0.556161 0.022155 
0.852128 0.522966 0.019585 
0.870951 0.491067 0.017239 
0.887473 0.460613 0.015083 
0.901879 0.431791 0.013106 
0.914337 0.404797 0.011308 
0.925011 0.379816 0.009694 
0.934071 0.356991 0.008268 
0.941691 0.336406 0.007031 
0.948047 0.318074 0.005978 
0.953312 0.301943 0.005100 
0.957650 0.287901 0.004383 
0.961209 0.275796 0.003808 
0.964119 0.265448 0.003357 
0.966495 0.256669 0.003011 
0.968428 0.249278 0.002754 
0.969996 0.243109 0.002570 
0.971256 0.238025 0.002445 
0.972252 0.233924 0.002369 
0.973012 0.230745 0.002332 
0.973547 0.228477 0.002327 
0.973853 0.227166 0.002346 
0.973909 0.226928 0.002382 
0.973668 0.227956 0.002422 
0.973060 0.230541 0.002451 
0.971971 0.235086 0.002445 
0.970242 0.242128 0.002364 
0.967635 0.252344 0.002153 
0.963816 0.266561 0.001728 
0.958312 0.285723 0.000979 
0.950470 0.310816 -0.000234 
0.939431 0.342732 -0.002067 
0.924135 0.382037 -0.004673 
0.903412 0.428697 -0.008167 
0.876175 0.481829 -0.012592 
0.841714 0.539627 -0.017920 
0.799952 0.599579 -0.024128 
0.751550 0.658929 -0.031396 
0.697853 0.715098 -0.040450 
0.641044 0.765676 -0.052948 
0.585367 0.807631 -0.071260 
0.541185 0.835590 -0.094382 
0.543139 0.834049 0.096760 
0.581140 0.810467 0.073620 
0.626446 0.777468 0.055767 
0.670282 0.740779 0.044377 
0.710091 0.703135 0.037043 
0.745515 0.665724 0.031914 
0.776883 0.629024 0.027960 
0.804663 0.593220 0.024667 
0.829278 0.558412 0.021781 
0.851069 0.524703 0.019176 
0.870298 0.492239 0.016789 
0.887169 0.461214 0.014594 
0.901854 0.431857 0.012582 
0.914516 0.404406 0.010757 
0.925321 0.379074 0.009127 
0.934446 0.356020 0.007697 
0.942078 0.335331 0.006466 
0.948406 0.317013 0.005430 
0.953614 0.300997 0.004575 
0.957877 0.287152 0.003885 
0.961350 0.275308 0.003341 
0.964171 0.265267 0.002920 
0.966454 0.256828 0.002605 
0.968294 0.249802 0.002375 
0.969768 0.244019 0.002215 
0.970933 0.239344 0.002112 
0.971829 0.235679 0.002054 
0.972481 0.232975 0.002032 
0.972896 0.231235 0.002037 
0.973064 0.230525 0.002060 
0.972956 0.230981 0.002093 
0.972516 0.232827 0.002120 
0.971658 0.236381 0.002123 
0.970254 0.242079 0.002071 
0.968119 0.250482 0.001922 
0.964990 0.262282 0.001611 
0.960496 0.278290 0.001052 
0.954130 0.299393 0.000133 
0.945212 0.326456 -0.001279 
0.932885 0.360160 -0.003323 
0.916150 0.400788 -0.006118 
0.893987 0.447987 -0.009735 
0.865553 0.500618 -0.014172 
0.830418 0.556804 -0.019376 
0.788725 0.614224 -0.025332 
0.741174 0.670537 -0.032260 
0.688932 0.723669 -0.040945 
0.633849 0.771633 -0.053088 
0.579774 0.811671 -0.071075 
0.536658 0.838557 -0.093915 
0.539896 0.836230 0.096080 
0.577926 0.812808 0.073103 
0.623339 0.779988 0.055373 
0.667371 0.743422 0.044052 
0.707460 0.705798 0.036752 
0.743237 0.668281 0.031631 
0.775015 0.631337 0.027667 
0.803239 0.595160 0.024350 
0.828306 0.559866 0.021428 
0.850530 0.525591 0.018780 
0.870146 0.492522 0.016347 
0.887338 0.460903 0.014107 
0.902266 0.431012 0.012057 
0.915088 0.403125 0.010205 
0.925977 0.377482 0.008560 
0.935121 0.354256 0.007128 
0.942721 0.333530 0.005908 
0.948980 0.315298 0.004892 
0.954097 0.299469 0.004064 
0.958256 0.285892 0.003405 
0.961619 0.274373 0.002893 
0.964328 0.264697 0.002505 
0.966502 0.256651 0.002219 
0.968234 0.250036 0.002017 
0.969602 0.244682 0.001882 
0.970659 0.240455 0.001799 
0.971443 0.237265 0.001757 
0.971976 0.235075 0.001747 
0.972259 0.233902 0.001758 
0.972275 0.233832 0.001781 
0.971988 0.235025 0.001805 
0.971330 0.237729 0.001813 
0.970202 0.242291 0.001782 
0.968459 0.249168 0.001678 
0.965893 0.258938 0.001452 
0.962214 0.272292 0.001036 
0.957025 0.290006 0.000341 
0.949790 0.312887 -0.000743 
0.939824 0.341651 -0.002337 
0.926296 0.376769 -0.004557 
0.908298 0.418257 -0.007491 
0.884972 0.465510 -0.011169 
0.855702 0.517235 -0.015562 
0.820278 0.571594 -0.020604 
0.778966 0.626514 -0.026302 
0.732424 0.680053 -0.032922 
0.681615 0.730545 -0.041297 
0.628097 0.776317 -0.053161 
0.575408 0.814787 -0.070902 
0.533189 0.840810 -0.093534 
0.537066 0.838117 0.095494 
0.575139 0.814823 0.072660 
0.620675 0.782134 0.055037 
0.664919 0.745632 0.043776 
0.705305 0.707964 0.036502 
0.741452 0.670271 0.031382 
0.773656 0.633014 0.027402 
0.802334 0.596391 0.024052 
0.827857 0.560543 0.021087 
0.850507 0.525642 0.018388 
0.870491 0.491927 0.015902 
0.887974 0.459693 0.013612 
0.903103 0.429268 0.011523 
0.916040 0.400972 0.009644 
0.926963 0.375067 0.007987 
0.936078 0.351732 0.006557 
0.943600 0.331044 0.005353 
0.949752 0.312974 0.004361 
0.954744 0.297409 0.003565 
0.958769 0.284170 0.002940 
0.962000 0.273040 0.002463 
0.964579 0.263786 0.002108 
0.966627 0.256181 0.001853 
0.968239 0.250022 0.001678 
0.969487 0.245136 0.001565 
0.970426 0.241394 0.001501 
0.971089 0.238714 0.001473 
0.971491 0.237071 0.001472 
0.971630 0.236500 0.001486 
0.971483 0.237105 0.001505 
0.971001 0.239070 0.001515 
0.970109 0.242664 0.001498 
0.968693 0.248256 0.001426 
0.966591 0.256322 0.001263 
0.963573 0.267442 0.000954 
0.959329 0.282291 0.000430 
0.953436 0.301594 -0.000399 
0.945349 0.326055 -0.001636 
0.934389 0.356237 -0.003388 
0.919777 0.392399 -0.005748 
0.900710 0.434333 -0.008772 
0.876497 0.481246 -0.012463 
0.846712 0.531787 -0.016768 
0.811303 0.584225 -0.021629 
0.770583 0.636765 -0.027079 
0.725116 0.687815 -0.033428 
0.675666 0.736036 -0.041547 
0.623542 0.779978 -0.053194 
0.572044 0.817165 -0.070754 
0.530576 0.842494 -0.093233 
0.534609 0.839744 0.094990 
0.572737 0.816546 0.072280 
0.618416 0.783941 0.054752 
0.662896 0.747444 0.043542 
0.703604 0.709665 0.036286 
0.740147 0.671723 0.031161 
0.772797 0.634072 0.027155 
0.801946 0.596924 0.023765 
0.827931 0.560447 0.020748 
0.851000 0.524858 0.017989 
0.871332 0.490451 0.015444 
0.889071 0.457582 0.013102 
0.904359 0.426633 0.010972 
0.917358 0.397961 0.009068 
0.928263 0.371851 0.007403 
0.937297 0.348480 0.005981 
0.944697 0.327910 0.004797 
0.950701 0.310085 0.003836 
0.955535 0.294862 0.003075 
0.959402 0.282033 0.002489 
0.962477 0.271354 0.002048 
0.964910 0.262577 0.001728 
0.966818 0.255461 0.001504 
0.968297 0.249798 0.001355 
0.969417 0.245416 0.001264 
0.970228 0.242191 0.001216 
0.970759 0.240052 0.001200 
0.971022 0.238987 0.001204 
0.971007 0.239047 0.001217 
0.970684 0.240356 0.001228 
0.969996 0.243117 0.001220 
0.968856 0.247621 0.001172 
0.967137 0.254254 0.001054 
0.964659 0.263499 0.000826 
0.961178 0.275930 0.000431 
0.956361 0.292189 -0.000202 
0.949773 0.312937 -0.001158 
0.940868 0.338764 -0.002533 
0.928992 0.370073 -0.004418 
0.913432 0.406934 -0.006881 
0.893499 0.448954 -0.009954 
0.868656 0.495229 -0.013615 
0.838629 0.544412 -0.017806 
0.803462 0.594931 -0.022480 
0.763461 0.645259 -0.027700 
0.719076 0.694108 -0.033815 
0.670883 0.740389 -0.041727 
0.619987 0.782806 -0.053208 
0.569506 0.818947 -0.070635 
0.528667 0.843718 -0.093007 
0.532490 0.841138 0.094560 
0.570691 0.818006 0.071959 
0.616539 0.785435 0.054511 
0.661284 0.748883 0.043344 
0.702346 0.710920 0.036098 
0.739315 0.672647 0.030960 
0.772440 0.634517 0.026921 
0.802080 0.596755 0.023481 
0.828535 0.559566 0.020402 
0.852015 0.523222 0.017576 
0.872671 0.488078 0.014966 
0.890628 0.454559 0.012568 
0.906022 0.423102 0.010397 
0.919028 0.394101 0.008471 
0.929859 0.367854 0.006804 
0.938759 0.344531 0.005397 
0.945990 0.324167 0.004241 
0.951809 0.306675 0.003316 
0.956453 0.291874 0.002595 
0.960136 0.279526 0.002049 
0.963038 0.269361 0.001648 
0.965308 0.261111 0.001363 
0.967065 0.254528 0.001169 
0.968401 0.249397 0.001045 
0.969383 0.245551 0.000974 
0.970058 0.242872 0.000941 
0.970450 0.241300 0.000934 
0.970565 0.240837 0.000940 
0.970387 0.241552 0.000950 
0.969879 0.243586 0.000947 
0.968974 0.247162 0.000916 
0.967574 0.252585 0.000833 
0.965540 0.260252 0.000665 
0.962678 0.270648 0.000368 
0.958727 0.284329 -0.000114 
0.953341 0.301894 -0.000852 
0.946082 0.323923 -0.001927 
0.936410 0.350890 -0.003422 
0.923714 0.383046 -0.005412 
0.907353 0.420295 -0.007946 
0.886754 0.462110 -0.011031 
0.861510 0.507530 -0.014633 
0.831461 0.555269 -0.018694 
0.796698 0.603933 -0.023185 
0.757483 0.652246 -0.028198 
0.714145 0.699166 -0.034114 
0.667093 0.743798 -0.041860 