# OOMMF: rectangular mesh v0.99 
# Segment count: 1 
# Begin: Segment 
# Begin: Header 
# Title: model.omf 
# Desc: 
# meshunit: unknown 
# xbase: 0 
# ybase: 0 
# zbase: 0 
# xstepsize: 1
# ystepsize: 1 
# zstepsize: 1 
# xnodes: 50 
# ynodes: 50 
# znodes: 4 
# xmin: -0.5 
# ymin: -0.5 
# zmin: -0.5 
# xmax: 49.500000 
# ymax: 49.500000 
# zmax: 3.500000 
# valueunit: Ms 
# valuemultiplier: 1 
# ValueRangeMaxMag:  1. 
# ValueRangeMinMag:  1e-8 
# End: Header 
# Begin: data text 
0.753064 0.639254 0.155724 
0.790213 0.597348 0.136889 
0.826402 0.550155 0.119956 
0.856471 0.505057 0.106656 
0.880445 0.464302 0.096128 
0.899423 0.428235 0.087484 
0.914534 0.396489 0.080152 
0.926701 0.368484 0.073795 
0.936622 0.343639 0.068205 
0.944815 0.321443 0.063242 
0.951660 0.301472 0.058802 
0.957438 0.283387 0.054804 
0.962358 0.266922 0.051186 
0.966574 0.251873 0.047899 
0.970206 0.238084 0.044903 
0.973345 0.225437 0.042170 
0.976063 0.213840 0.039676 
0.978419 0.203219 0.037402 
0.980462 0.193509 0.035331 
0.982235 0.184652 0.033451 
0.983772 0.176591 0.031746 
0.985108 0.169266 0.030203 
0.986269 0.162617 0.028810 
0.987281 0.156582 0.027552 
0.988166 0.151098 0.026416 
0.988944 0.146102 0.025388 
0.989631 0.141534 0.024456 
0.990243 0.137335 0.023609 
0.990792 0.133453 0.022834 
0.991288 0.129841 0.022124 
0.991739 0.126460 0.021469 
0.992153 0.123279 0.020865 
0.992532 0.120280 0.020309 
0.992881 0.117456 0.019799 
0.993198 0.114818 0.019339 
0.993483 0.112399 0.018935 
0.993729 0.110259 0.018599 
0.993928 0.108493 0.018347 
0.994066 0.107243 0.018199 
0.994124 0.106711 0.018180 
0.994072 0.107174 0.018312 
0.993868 0.109001 0.018600 
0.993452 0.112656 0.019000 
0.992743 0.118687 0.019346 
0.991636 0.127634 0.019179 
0.990026 0.139804 0.017408 
0.987885 0.154749 0.011693 
0.985385 0.170327 -0.002330 
0.982896 0.181609 -0.030557 
0.980551 0.182614 -0.071919 
0.728179 0.669906 0.144849 
0.766611 0.630841 0.119778 
0.805987 0.583336 0.100514 
0.839042 0.537020 0.087285 
0.865489 0.494858 0.077747 
0.886496 0.457361 0.070332 
0.903291 0.424196 0.064214 
0.916874 0.394797 0.058975 
0.927999 0.368592 0.054391 
0.937224 0.345076 0.050328 
0.944961 0.323833 0.046695 
0.951514 0.304527 0.043423 
0.957107 0.286896 0.040462 
0.961911 0.270742 0.037770 
0.966055 0.255911 0.035317 
0.969640 0.242289 0.033080 
0.972746 0.229787 0.031040 
0.975438 0.218331 0.029181 
0.977772 0.207859 0.027493 
0.979795 0.198311 0.025962 
0.981548 0.189628 0.024577 
0.983069 0.181746 0.023329 
0.984389 0.174602 0.022205 
0.985537 0.168127 0.021194 
0.986541 0.162253 0.020286 
0.987421 0.156912 0.019468 
0.988198 0.152035 0.018730 
0.988888 0.147562 0.018063 
0.989506 0.143433 0.017457 
0.990064 0.139600 0.016905 
0.990570 0.136021 0.016401 
0.991033 0.132664 0.015940 
0.991456 0.129511 0.015520 
0.991843 0.126562 0.015143 
0.992193 0.123833 0.014810 
0.992501 0.121370 0.014528 
0.992761 0.119251 0.014308 
0.992960 0.117598 0.014163 
0.993080 0.116593 0.014112 
0.993090 0.116495 0.014172 
0.992949 0.117666 0.014359 
0.992593 0.120599 0.014667 
0.991923 0.125944 0.015041 
0.990792 0.134528 0.015294 
0.988975 0.147327 0.014946 
0.986152 0.165345 0.012861 
0.981900 0.189285 0.006578 
0.975720 0.218854 -0.008599 
0.967063 0.251494 -0.039240 
0.956317 0.279906 -0.084322 
0.701286 0.699907 0.135385 
0.739461 0.664544 0.107604 
0.780796 0.618739 0.086716 
0.816645 0.572473 0.073259 
0.845867 0.529511 0.064237 
0.869360 0.490810 0.057609 
0.888313 0.456247 0.052323 
0.903756 0.425363 0.047872 
0.916485 0.397642 0.044006 
0.927098 0.372614 0.040590 
0.936040 0.349885 0.037536 
0.943642 0.329134 0.034785 
0.950151 0.310114 0.032293 
0.955753 0.292633 0.030028 
0.960593 0.276547 0.027964 
0.964784 0.261749 0.026082 
0.968414 0.248154 0.024368 
0.971559 0.235695 0.022811 
0.974283 0.224310 0.021399 
0.976640 0.213939 0.020124 
0.978678 0.204520 0.018976 
0.980442 0.195986 0.017947 
0.981970 0.188267 0.017026 
0.983297 0.181287 0.016204 
0.984452 0.174971 0.015471 
0.985463 0.169242 0.014816 
0.986353 0.164027 0.014230 
0.987142 0.159257 0.013706 
0.987847 0.154868 0.013235 
0.988480 0.150807 0.012812 
0.989054 0.147031 0.012431 
0.989575 0.143509 0.012089 
0.990049 0.140227 0.011785 
0.990478 0.137190 0.011521 
0.990858 0.134431 0.011300 
0.991185 0.132014 0.011129 
0.991447 0.130046 0.011017 
0.991623 0.128695 0.010978 
0.991686 0.128207 0.011026 
0.991590 0.128932 0.011173 
0.991268 0.131368 0.011426 
0.990611 0.136201 0.011763 
0.989450 0.144369 0.012101 
0.987503 0.157123 0.012216 
0.984310 0.176070 0.011562 
0.979110 0.203134 0.008912 
0.970708 0.240258 0.001680 
0.957396 0.288394 -0.014908 
0.937582 0.344555 -0.047134 
0.914186 0.394531 -0.092787 
0.676249 0.725442 0.128148 
0.714097 0.692894 0.099817 
0.756483 0.649297 0.078405 
0.794350 0.603986 0.064874 
0.825907 0.561006 0.056119 
0.851686 0.521671 0.049914 
0.872733 0.486110 0.045088 
0.890043 0.454021 0.041082 
0.904419 0.424984 0.037624 
0.916478 0.398587 0.034575 
0.926690 0.374475 0.031850 
0.935404 0.352356 0.029395 
0.942888 0.332001 0.027169 
0.949343 0.313234 0.025145 
0.954926 0.295927 0.023300 
0.959762 0.279981 0.021620 
0.963951 0.265321 0.020092 
0.967576 0.251886 0.018707 
0.970710 0.239618 0.017457 
0.973417 0.228456 0.016333 
0.975753 0.218336 0.015327 
0.977769 0.209187 0.014432 
0.979510 0.200932 0.013636 
0.981017 0.193490 0.012933 
0.982326 0.186775 0.012311 
0.983467 0.180704 0.011762 
0.984469 0.175195 0.011277 
0.985354 0.170174 0.010848 
0.986142 0.165574 0.010469 
0.986847 0.161336 0.010134 
0.987483 0.157418 0.009839 
0.988057 0.153792 0.009582 
0.988573 0.150450 0.009362 
0.989033 0.147409 0.009182 
0.989431 0.144719 0.009046 
0.989758 0.142472 0.008960 
0.989996 0.140815 0.008934 
0.990115 0.139974 0.008980 
0.990071 0.140275 0.009107 
0.989796 0.142190 0.009321 
0.989182 0.146381 0.009612 
0.988056 0.153775 0.009934 
0.986132 0.165649 0.010165 
0.982928 0.183720 0.010014 
0.977615 0.210215 0.008853 
0.968802 0.247776 0.005366 
0.954279 0.298901 -0.003036 
0.931112 0.364139 -0.020821 
0.897541 0.437698 -0.053303 
0.860892 0.499420 -0.097181 
0.654166 0.746355 0.122561 
0.691866 0.715809 0.094547 
0.734892 0.674219 0.073235 
0.774153 0.630166 0.059817 
0.807495 0.587643 0.051255 
0.835156 0.548145 0.045293 
0.858021 0.511997 0.040724 
0.877012 0.479044 0.036963 
0.892910 0.448970 0.033731 
0.906332 0.421436 0.030883 
0.917755 0.396135 0.028337 
0.927542 0.372810 0.026041 
0.935971 0.351260 0.023957 
0.943257 0.331331 0.022061 
0.949565 0.312911 0.020333 
0.955029 0.295918 0.018760 
0.959760 0.280288 0.017333 
0.963849 0.265966 0.016043 
0.967378 0.252900 0.014883 
0.970419 0.241031 0.013847 
0.973036 0.230292 0.012925 
0.975287 0.220609 0.012111 
0.977226 0.211896 0.011394 
0.978898 0.204065 0.010766 
0.980346 0.197024 0.010216 
0.981604 0.190680 0.009737 
0.982704 0.184947 0.009320 
0.983673 0.179743 0.008957 
0.984531 0.174997 0.008642 
0.985296 0.170651 0.008369 
0.985981 0.166662 0.008136 
0.986593 0.163007 0.007941 
0.987137 0.159689 0.007784 
0.987610 0.156740 0.007667 
0.988005 0.154232 0.007596 
0.988306 0.152293 0.007576 
0.988486 0.151118 0.007616 
0.988503 0.151002 0.007724 
0.988292 0.152371 0.007904 
0.987750 0.155831 0.008150 
0.986716 0.162238 0.008430 
0.984923 0.172777 0.008663 
0.981926 0.189065 0.008672 
0.976966 0.213241 0.008093 
0.968750 0.247961 0.006215 
0.955155 0.296103 0.001688 
0.933024 0.359727 -0.007927 
0.898798 0.437561 -0.026507 
0.851933 0.520406 -0.058200 
0.804635 0.585435 -0.099135 
0.635137 0.763320 0.118086 
0.672812 0.734237 0.090665 
0.716291 0.694311 0.069709 
0.756537 0.651505 0.056505 
0.791213 0.609645 0.048116 
0.820362 0.570277 0.042320 
0.844731 0.533847 0.037908 
0.865164 0.500316 0.034294 
0.882402 0.469461 0.031192 
0.897050 0.441013 0.028459 
0.909579 0.414717 0.026013 
0.920356 0.390356 0.023804 
0.929665 0.367760 0.021798 
0.937725 0.346803 0.019970 
0.944711 0.327393 0.018304 
0.950762 0.309465 0.016790 
0.955997 0.292971 0.015418 
0.960515 0.277866 0.014183 
0.964407 0.264101 0.013077 
0.967751 0.251619 0.012093 
0.970621 0.240353 0.011225 
0.973082 0.230222 0.010464 
0.975194 0.221136 0.009801 
0.977009 0.212997 0.009225 
0.978575 0.205707 0.008728 
0.979931 0.199166 0.008299 
0.981112 0.193279 0.007932 
0.982147 0.187962 0.007618 
0.983059 0.183140 0.007351 
0.983868 0.178755 0.007126 
0.984585 0.174768 0.006942 
0.985219 0.171165 0.006795 
0.985771 0.167958 0.006687 
0.986238 0.165201 0.006621 
0.986605 0.162995 0.006601 
0.986849 0.161507 0.006633 
0.986933 0.160991 0.006722 
0.986796 0.161823 0.006871 
0.986345 0.164538 0.007075 
0.985435 0.169895 0.007310 
0.983830 0.178947 0.007518 
0.981143 0.193135 0.007574 
0.976725 0.214374 0.007240 
0.969483 0.245085 0.006082 
0.957613 0.288039 0.003336 
0.938325 0.345746 -0.002304 
0.907910 0.418964 -0.012986 
0.863132 0.503971 -0.031876 
0.805696 0.589065 -0.062101 
0.751663 0.651957 -0.099771 
0.618886 0.777106 0.114393 
0.656591 0.749141 0.087611 
0.700418 0.710574 0.067082 
0.741385 0.668894 0.054125 
0.777067 0.627742 0.045898 
0.807383 0.588655 0.040228 
0.832977 0.552140 0.035925 
0.854623 0.518237 0.032406 
0.873019 0.486800 0.029388 
0.888745 0.457622 0.026726 
0.902265 0.430495 0.024340 
0.913939 0.405246 0.022181 
0.924050 0.381738 0.020217 
0.932820 0.359872 0.018427 
0.940426 0.339584 0.016795 
0.947014 0.320828 0.015313 
0.952707 0.303570 0.013973 
0.957612 0.287778 0.012771 
0.961827 0.273408 0.011699 
0.965439 0.260406 0.010752 
0.968529 0.248701 0.009923 
0.971170 0.238208 0.009201 
0.973428 0.228831 0.008577 
0.975362 0.220464 0.008043 
0.977023 0.212999 0.007586 
0.978456 0.206331 0.007199 
0.979698 0.200359 0.006872 
0.980782 0.194996 0.006598 
0.981732 0.190165 0.006371 
0.982566 0.185810 0.006186 
0.983299 0.181898 0.006041 
0.983936 0.178424 0.005935 
0.984477 0.175418 0.005869 
0.984912 0.172955 0.005845 
0.985224 0.171172 0.005866 
0.985377 0.170283 0.005937 
0.985320 0.170609 0.006059 
0.984970 0.172613 0.006226 
0.984198 0.176952 0.006422 
0.982803 0.184539 0.006601 
0.980457 0.196622 0.006671 
0.976623 0.214861 0.006462 
0.970415 0.241376 0.005678 
0.960381 0.278664 0.003834 
0.944248 0.329235 0.000163 
0.918793 0.394686 -0.006514 
0.880345 0.473992 -0.017972 
0.826847 0.561228 -0.036699 
0.762455 0.643756 -0.065113 
0.705303 0.701863 -0.099683 
0.605037 0.788381 0.111289 
0.642787 0.761302 0.085109 
0.686886 0.723853 0.065004 
0.728399 0.683155 0.052290 
0.764855 0.642683 0.044211 
0.796095 0.603936 0.038644 
0.822690 0.567448 0.034424 
0.845352 0.533311 0.030972 
0.864743 0.501434 0.028010 
0.881414 0.471661 0.025395 
0.895813 0.443832 0.023046 
0.908292 0.417813 0.020917 
0.919129 0.393500 0.018976 
0.928542 0.370828 0.017205 
0.936711 0.349757 0.015591 
0.943783 0.330264 0.014127 
0.949886 0.312334 0.012806 
0.955135 0.295942 0.011626 
0.959633 0.281055 0.010579 
0.963477 0.267618 0.009659 
0.966753 0.255557 0.008860 
0.969543 0.244783 0.008170 
0.971920 0.235191 0.007580 
0.973946 0.226668 0.007080 
0.975680 0.219099 0.006659 
0.977169 0.212371 0.006307 
0.978453 0.206380 0.006015 
0.979567 0.201034 0.005776 
0.980536 0.196258 0.005584 
0.981380 0.192000 0.005434 
0.982110 0.188233 0.005325 
0.982731 0.184966 0.005254 
0.983239 0.182248 0.005223 
0.983619 0.180184 0.005233 
0.983844 0.178948 0.005286 
0.983869 0.178809 0.005384 
0.983622 0.180160 0.005521 
0.982992 0.183559 0.005683 
0.981808 0.189786 0.005836 
0.979797 0.199906 0.005910 
0.976523 0.215334 0.005780 
0.971278 0.237889 0.005229 
0.962921 0.269756 0.003919 
0.949664 0.313267 0.001344 
0.928902 0.370312 -0.003212 
0.897334 0.441223 -0.010734 
0.851910 0.523200 -0.022609 
0.792178 0.608925 -0.040791 
0.724226 0.686269 -0.067314 
0.666563 0.738821 -0.099179 
0.593221 0.797674 0.108656 
0.631009 0.771321 0.083019 
0.675322 0.734801 0.063303 
0.717261 0.694950 0.050815 
0.754327 0.655097 0.042868 
0.786312 0.616697 0.037387 
0.813732 0.580289 0.033231 
0.837254 0.545999 0.029830 
0.857503 0.513776 0.026907 
0.875004 0.483505 0.024322 
0.890185 0.455068 0.021996 
0.903386 0.428366 0.019882 
0.914877 0.403334 0.017952 
0.924871 0.379937 0.016189 
0.933545 0.358163 0.014583 
0.941050 0.338013 0.013128 
0.947517 0.319488 0.011819 
0.953065 0.302577 0.010653 
0.957807 0.287252 0.009625 
0.961844 0.273458 0.008729 
0.965274 0.261120 0.007955 
0.968182 0.250140 0.007294 
0.970649 0.240406 0.006734 
0.972744 0.231796 0.006266 
0.974528 0.224189 0.005876 
0.976052 0.217464 0.005556 
0.977361 0.211514 0.005297 
0.978487 0.206246 0.005089 
0.979458 0.201586 0.004929 
0.980294 0.197488 0.004810 
0.981003 0.193935 0.004732 
0.981588 0.190952 0.004691 
0.982040 0.188612 0.004690 
0.982339 0.187051 0.004728 
0.982446 0.186488 0.004804 
0.982300 0.187249 0.004915 
0.981809 0.189805 0.005049 
0.980827 0.194812 0.005181 
0.979130 0.203169 0.005256 
0.976363 0.216073 0.005179 
0.971968 0.235066 0.004791 
0.965052 0.262031 0.003841 
0.954233 0.299058 0.001966 
0.937467 0.348073 -0.001323 
0.912023 0.410086 -0.006640 
0.874901 0.484077 -0.014749 
0.824061 0.565871 -0.026696 
0.760605 0.647716 -0.044083 
0.691706 0.718893 -0.068816 
0.635106 0.766127 -0.098436 
0.583108 0.805395 0.106412 
0.620925 0.779648 0.081253 
0.665407 0.743911 0.061886 
0.707684 0.704786 0.049601 
0.745245 0.665482 0.041769 
0.777843 0.627406 0.036362 
0.805957 0.591095 0.032256 
0.830216 0.556693 0.028893 
0.851212 0.524178 0.025998 
0.869446 0.493472 0.023431 
0.885327 0.464490 0.021115 
0.899178 0.437171 0.019007 
0.911258 0.411483 0.017079 
0.921774 0.387424 0.015316 
0.930902 0.365012 0.013710 
0.938790 0.344272 0.012258 
0.945574 0.325223 0.010956 
0.951379 0.307866 0.009801 
0.956324 0.292176 0.008789 
0.960519 0.278100 0.007913 
0.964069 0.265557 0.007163 
0.967066 0.254442 0.006528 
0.969597 0.244634 0.005997 
0.971736 0.236003 0.005558 
0.973549 0.228419 0.005199 
0.975089 0.221758 0.004909 
0.976403 0.215907 0.004679 
0.977524 0.210774 0.004501 
0.978481 0.206290 0.004369 
0.979291 0.202414 0.004279 
0.979961 0.199144 0.004228 
0.980490 0.196522 0.004214 
0.980864 0.194649 0.004237 
0.981052 0.193695 0.004295 
0.981006 0.193928 0.004384 
0.980646 0.195737 0.004495 
0.979852 0.199671 0.004607 
0.978440 0.206480 0.004680 
0.976123 0.217170 0.004643 
0.972457 0.233041 0.004373 
0.966750 0.255697 0.003683 
0.957934 0.286978 0.002300 
0.944429 0.328715 -0.000138 
0.924057 0.382233 -0.004067 
0.894203 0.447550 -0.009969 
0.852465 0.522461 -0.018394 
0.797926 0.602002 -0.030135 
0.732866 0.678774 -0.046614 
0.664749 0.743803 -0.069757 
0.609994 0.786376 -0.097574 
0.574421 0.811863 0.104491 
0.612256 0.786627 0.079751 
0.656873 0.751554 0.060693 
0.699428 0.713050 0.048588 
0.737398 0.674221 0.040858 
0.770515 0.636432 0.035513 
0.799224 0.600210 0.031447 
0.824126 0.565709 0.028111 
0.845783 0.532930 0.025233 
0.864673 0.501823 0.022675 
0.881184 0.472335 0.020361 
0.895622 0.444441 0.018249 
0.908235 0.418142 0.016315 
0.919222 0.393471 0.014545 
0.928753 0.370474 0.012934 
0.936977 0.349203 0.011480 
0.944033 0.329693 0.010182 
0.950054 0.311956 0.009036 
0.955163 0.295972 0.008039 
0.959480 0.281684 0.007181 
0.963117 0.269006 0.006454 
0.966174 0.257824 0.005846 
0.968743 0.248007 0.005343 
0.970904 0.239418 0.004932 
0.972725 0.231917 0.004602 
0.974262 0.225375 0.004341 
0.975563 0.219680 0.004139 
0.976664 0.214738 0.003989 
0.977589 0.210486 0.003883 
0.978356 0.206894 0.003819 
0.978969 0.203973 0.003792 
0.979422 0.201789 0.003800 
0.979692 0.200470 0.003841 
0.979742 0.200228 0.003911 
0.979505 0.201378 0.004002 
0.978884 0.204375 0.004097 
0.977726 0.209842 0.004167 
0.975801 0.218619 0.004156 
0.972757 0.231794 0.003974 
0.968051 0.250729 0.003476 
0.960862 0.277015 0.002455 
0.949973 0.312333 0.000632 
0.933675 0.358113 -0.002329 
0.909810 0.414970 -0.006784 
0.876089 0.481972 -0.013076 
0.830863 0.556059 -0.021574 
0.774219 0.632061 -0.032921 
0.709125 0.703414 -0.048483 
0.642777 0.762823 -0.070279 
0.590141 0.801490 -0.096677 
0.566930 0.817321 0.102844 
0.604774 0.792522 0.078469 
0.649502 0.758014 0.059682 
0.692291 0.720038 0.047736 
0.730613 0.681614 0.040096 
0.764179 0.644065 0.034802 
0.793412 0.607906 0.030768 
0.818886 0.573300 0.027450 
0.841138 0.540262 0.024580 
0.860622 0.508767 0.022022 
0.877706 0.478794 0.019702 
0.892680 0.450348 0.017579 
0.905776 0.423469 0.015632 
0.917184 0.398223 0.013850 
0.927071 0.374686 0.012230 
0.935586 0.352935 0.010771 
0.942871 0.333023 0.009474 
0.949065 0.314970 0.008337 
0.954300 0.298759 0.007353 
0.958705 0.284328 0.006515 
0.962398 0.271583 0.005811 
0.965487 0.260399 0.005228 
0.968069 0.250637 0.004753 
0.970229 0.242148 0.004371 
0.972038 0.234787 0.004069 
0.973555 0.228420 0.003835 
0.974827 0.222933 0.003660 
0.975890 0.218236 0.003536 
0.976768 0.214272 0.003455 
0.977475 0.211023 0.003413 
0.978012 0.208519 0.003406 
0.978367 0.206847 0.003431 
0.978510 0.206169 0.003484 
0.978390 0.206737 0.003557 
0.977926 0.208920 0.003638 
0.976995 0.213232 0.003703 
0.975410 0.220369 0.003710 
0.972890 0.231240 0.003590 
0.969013 0.246990 0.003235 
0.963140 0.268988 0.002485 
0.954335 0.298735 0.001121 
0.941272 0.337647 -0.001122 
0.922212 0.386658 -0.004536 
0.895157 0.445653 -0.009384 
0.858290 0.512919 -0.015877 
0.810720 0.584931 -0.024259 
0.753281 0.656761 -0.035108 
0.689187 0.722869 -0.049815 
0.625062 0.777385 -0.070504 
0.574528 0.812859 -0.095801 
0.560444 0.821958 0.101427 
0.598293 0.797533 0.077372 
0.643116 0.763506 0.058822 
0.686110 0.725977 0.047016 
0.724742 0.687889 0.039453 
0.758711 0.650529 0.034202 
0.788417 0.614400 0.030192 
0.814410 0.579666 0.026885 
0.837207 0.546358 0.024016 
0.857239 0.514472 0.021450 
0.874851 0.484015 0.019116 
0.890315 0.455029 0.016976 
0.903849 0.427589 0.015010 
0.915634 0.401795 0.013210 
0.925832 0.377757 0.011577 
0.934594 0.355574 0.010112 
0.942065 0.335315 0.008816 
0.948392 0.317008 0.007686 
0.953716 0.300635 0.006716 
0.958173 0.286128 0.005898 
0.961891 0.273383 0.005218 
0.964985 0.262263 0.004662 
0.967557 0.252617 0.004215 
0.969696 0.244286 0.003861 
0.971474 0.237120 0.003587 
0.972953 0.230980 0.003380 
0.974179 0.225752 0.003231 
0.975189 0.221351 0.003130 
0.976004 0.217729 0.003071 
0.976635 0.214882 0.003049 
0.977078 0.212858 0.003058 
0.977314 0.211772 0.003095 
0.977304 0.211818 0.003153 
0.976983 0.213291 0.003221 
0.976253 0.216610 0.003280 
0.974962 0.222348 0.003298 
0.972887 0.231260 0.003223 
0.969693 0.244307 0.002972 
0.964888 0.262652 0.002423 
0.957745 0.287615 0.001407 
0.947238 0.320531 -0.000293 
0.931990 0.362471 -0.002916 
0.910329 0.413831 -0.006693 
0.880532 0.473840 -0.011795 
0.841312 0.540239 -0.018328 
0.792427 0.609393 -0.026466 
0.735163 0.676892 -0.036782 
0.672664 0.738207 -0.050733 
0.610876 0.788578 -0.070533 
0.562283 0.821472 -0.094983 
0.554809 0.825921 0.100205 
0.592662 0.801817 0.076429 
0.637571 0.768199 0.058089 
0.680751 0.731044 0.046405 
0.719668 0.693227 0.038909 
0.754007 0.656002 0.033694 
0.784151 0.619859 0.029701 
0.810629 0.584965 0.026397 
0.833935 0.551361 0.023521 
0.854478 0.519065 0.020941 
0.872581 0.488117 0.018586 
0.888496 0.458590 0.016421 
0.902429 0.430598 0.014430 
0.914549 0.404278 0.012610 
0.925015 0.379772 0.010961 
0.933979 0.357202 0.009489 
0.941594 0.336651 0.008193 
0.948013 0.318153 0.007071 
0.953388 0.301684 0.006118 
0.957865 0.287169 0.005321 
0.961579 0.274489 0.004667 
0.964652 0.263496 0.004138 
0.967190 0.254025 0.003719 
0.969287 0.245910 0.003394 
0.971017 0.238990 0.003147 
0.972442 0.233128 0.002967 
0.973608 0.228209 0.002841 
0.974550 0.224155 0.002762 
0.975287 0.220927 0.002723 
0.975825 0.218537 0.002717 
0.976155 0.217056 0.002739 
0.976251 0.216625 0.002782 
0.976062 0.217473 0.002837 
0.975510 0.219937 0.002890 
0.974474 0.224484 0.002914 
0.972774 0.231736 0.002871 
0.970149 0.242495 0.002696 
0.966210 0.257746 0.002297 
0.960397 0.278632 0.001542 
0.951913 0.306370 0.000258 
0.939676 0.342061 -0.001755 
0.922324 0.386389 -0.004701 
0.898333 0.439228 -0.008744 
0.866326 0.499283 -0.013971 
0.825522 0.564001 -0.020420 
0.776163 0.629900 -0.028238 
0.719729 0.693212 -0.038036 
0.659104 0.750298 -0.051342 
0.599570 0.797216 -0.070441 
0.552697 0.828036 -0.094246 
0.549898 0.829326 0.099150 
0.587757 0.805496 0.075619 
0.632749 0.772222 0.057462 
0.676106 0.735374 0.045885 
0.715294 0.697765 0.038448 
0.749984 0.660619 0.033261 
0.780544 0.624414 0.029278 
0.807485 0.589317 0.025971 
0.831275 0.555381 0.023081 
0.852302 0.522648 0.020478 
0.870866 0.491186 0.018095 
0.887201 0.461109 0.015900 
0.901494 0.432569 0.013880 
0.913909 0.405741 0.012035 
0.924600 0.380799 0.010370 
0.933722 0.357887 0.008889 
0.941438 0.337101 0.007594 
0.947909 0.318475 0.006484 
0.953299 0.301978 0.005548 
0.957762 0.287522 0.004775 
0.961443 0.274974 0.004148 
0.964469 0.264171 0.003648 
0.966953 0.254934 0.003259 
0.968989 0.247087 0.002962 
0.970654 0.240465 0.002742 
0.972009 0.234929 0.002586 
0.973101 0.230366 0.002484 
0.973960 0.226706 0.002425 
0.974604 0.223922 0.002402 
0.975034 0.222044 0.002409 
0.975234 0.221164 0.002439 
0.975168 0.221453 0.002482 
0.974775 0.223174 0.002528 
0.973960 0.226704 0.002555 
0.972581 0.232552 0.002533 
0.970427 0.241381 0.002414 
0.967197 0.254020 0.002126 
0.962451 0.271449 0.001566 
0.955573 0.294753 0.000599 
0.945716 0.324994 -0.000940 
0.931784 0.362999 -0.003232 
0.912487 0.409054 -0.006433 
0.886516 0.462576 -0.010646 
0.852854 0.521908 -0.015893 
0.811149 0.584419 -0.022171 
0.761951 0.646957 -0.029638 
0.706741 0.706399 -0.038959 
0.648056 0.759834 -0.051731 
0.590593 0.803903 -0.070285 
0.545208 0.833059 -0.093599 
0.545608 0.832263 0.098237 
0.583478 0.808666 0.074920 
0.628555 0.775679 0.056925 
0.672089 0.739074 0.045443 
0.711543 0.701612 0.038055 
0.746576 0.664486 0.032890 
0.777543 0.628165 0.028911 
0.804932 0.592814 0.025594 
0.829193 0.558502 0.022683 
0.850685 0.525293 0.020050 
0.869686 0.493290 0.017632 
0.886410 0.462645 0.015400 
0.901028 0.433556 0.013347 
0.913696 0.406236 0.011475 
0.924568 0.380891 0.009792 
0.933805 0.357686 0.008304 
0.941577 0.336723 0.007013 
0.948060 0.318035 0.005916 
0.953428 0.301579 0.005001 
0.957846 0.287252 0.004254 
0.961465 0.274902 0.003656 
0.964422 0.264349 0.003187 
0.966831 0.255403 0.002827 
0.968788 0.247877 0.002559 
0.970372 0.241603 0.002366 
0.971644 0.236437 0.002234 
0.972648 0.232275 0.002153 
0.973411 0.229055 0.002112 
0.973948 0.226763 0.002103 
0.974253 0.225447 0.002119 
0.974305 0.225223 0.002151 
0.974057 0.226291 0.002189 
0.973436 0.228947 0.002216 
0.972329 0.233604 0.002209 
0.970571 0.240806 0.002130 
0.967921 0.251245 0.001923 
0.964039 0.265756 0.001510 
0.958442 0.285286 0.000784 
0.950468 0.310821 -0.000390 
0.939247 0.343234 -0.002165 
0.923713 0.383056 -0.004689 
0.902696 0.430202 -0.008077 
0.875131 0.483727 -0.012373 
0.840343 0.541771 -0.017557 
0.798300 0.601797 -0.023613 
0.749704 0.661059 -0.030728 
0.695917 0.717028 -0.039629 
0.639111 0.767357 -0.051967 
0.583494 0.809086 -0.070102 
0.539377 0.836908 -0.093045 
0.541856 0.834803 0.097447 
0.579744 0.811402 0.074319 
0.624914 0.778649 0.056465 
0.668630 0.742228 0.045066 
0.708352 0.704851 0.037719 
0.743731 0.667685 0.032571 
0.775104 0.631187 0.028588 
0.802939 0.595526 0.025254 
0.827662 0.560783 0.022315 
0.849606 0.527051 0.019645 
0.869025 0.494470 0.017185 
0.886108 0.463239 0.014911 
0.901015 0.433597 0.012821 
0.913895 0.405803 0.010920 
0.924903 0.380090 0.009219 
0.934209 0.356643 0.007726 
0.941994 0.335567 0.006442 
0.948448 0.316887 0.005361 
0.953757 0.300544 0.004470 
0.958098 0.286415 0.003753 
0.961630 0.274330 0.003186 
0.964494 0.264089 0.002749 
0.966809 0.255489 0.002421 
0.968672 0.248335 0.002181 
0.970161 0.242452 0.002014 
0.971336 0.237702 0.001905 
0.972239 0.233983 0.001843 
0.972894 0.231244 0.001817 
0.973310 0.229487 0.001819 
0.973476 0.228780 0.001840 
0.973363 0.229262 0.001870 
0.972914 0.231160 0.001896 
0.972041 0.234803 0.001898 
0.970615 0.240632 0.001847 
0.968445 0.249221 0.001700 
0.965264 0.261272 0.001397 
0.960695 0.277605 0.000853 
0.954219 0.299108 -0.000040 
0.945148 0.326638 -0.001409 
0.932616 0.360854 -0.003390 
0.915621 0.401997 -0.006099 
0.893149 0.449659 -0.009606 
0.864383 0.502642 -0.013914 
0.828934 0.559024 -0.018975 
0.786988 0.616471 -0.024784 
0.739275 0.672663 -0.031568 
0.686973 0.725576 -0.040109 
0.631914 0.773285 -0.052101 
0.577913 0.813098 -0.069917 
0.534867 0.839848 -0.092583 
0.538575 0.837003 0.096764 
0.576490 0.813764 0.073801 
0.621765 0.781194 0.056072 
0.665675 0.744899 0.044744 
0.705676 0.707545 0.037432 
0.741410 0.670274 0.032293 
0.773197 0.633534 0.028301 
0.801483 0.597497 0.024942 
0.826667 0.562263 0.021966 
0.849055 0.527954 0.019252 
0.868871 0.494755 0.016743 
0.886287 0.462912 0.014422 
0.901446 0.432717 0.012291 
0.914493 0.404468 0.010361 
0.925590 0.378429 0.008644 
0.934916 0.354797 0.007149 
0.942669 0.333677 0.005876 
0.949053 0.315079 0.004816 
0.954269 0.298924 0.003954 
0.958502 0.285066 0.003268 
0.961922 0.273311 0.002736 
0.964672 0.263442 0.002332 
0.966875 0.255242 0.002036 
0.968629 0.248506 0.001825 
0.970010 0.243060 0.001683 
0.971076 0.238764 0.001596 
0.971866 0.235528 0.001550 
0.972401 0.233309 0.001537 
0.972684 0.232128 0.001546 
0.972698 0.232071 0.001568 
0.972403 0.233301 0.001591 
0.971734 0.236073 0.001598 
0.970588 0.240740 0.001567 
0.968818 0.247771 0.001465 
0.966210 0.257752 0.001243 
0.962470 0.271386 0.000837 
0.957192 0.289455 0.000160 
0.949831 0.312763 -0.000894 
0.939691 0.342016 -0.002441 
0.925936 0.377652 -0.004594 
0.907658 0.419645 -0.007438 
0.884014 0.467331 -0.011005 
0.854416 0.519365 -0.015268 
0.818697 0.573872 -0.020171 
0.777159 0.628778 -0.025728 
0.730485 0.682168 -0.032211 
0.679642 0.732428 -0.040450 
0.626166 0.777942 -0.052171 
0.573561 0.816188 -0.069747 
0.531417 0.842077 -0.092208 
0.535710 0.838908 0.096174 
0.573665 0.815799 0.073356 
0.619061 0.783363 0.055737 
0.663182 0.747136 0.044471 
0.703481 0.709741 0.037187 
0.739588 0.672297 0.032049 
0.771803 0.635243 0.028041 
0.800552 0.598756 0.024650 
0.826201 0.562961 0.021629 
0.849025 0.528015 0.018861 
0.869222 0.494153 0.016297 
0.886939 0.461677 0.013924 
0.902309 0.430929 0.011750 
0.915477 0.402251 0.009791 
0.926611 0.375935 0.008061 
0.935908 0.352183 0.006568 
0.943583 0.331094 0.005311 
0.949856 0.312657 0.004277 
0.954943 0.296769 0.003447 
0.959041 0.283254 0.002798 
0.962324 0.271895 0.002302 
0.964942 0.262456 0.001934 
0.967017 0.254706 0.001669 
0.968648 0.248434 0.001487 
0.969909 0.243463 0.001369 
0.970856 0.239661 0.001301 
0.971523 0.236942 0.001271 
0.971927 0.235279 0.001268 
0.972065 0.234709 0.001281 
0.971913 0.235337 0.001299 
0.971423 0.237351 0.001309 
0.970517 0.241028 0.001292 
0.969080 0.246745 0.001222 
0.966944 0.254987 0.001061 
0.963877 0.266345 0.000759 
0.959561 0.281502 0.000246 
0.953565 0.301187 -0.000562 
0.945334 0.326100 -0.001766 
0.934180 0.356784 -0.003468 
0.919322 0.393465 -0.005757 
0.899961 0.435885 -0.008689 
0.875425 0.483198 -0.012266 
0.845323 0.534003 -0.016443 
0.809639 0.586546 -0.021168 
0.768720 0.639037 -0.026484 
0.723150 0.689916 -0.032702 
0.673688 0.737895 -0.040693 
0.621622 0.781576 -0.052203 
0.570215 0.818542 -0.069602 
0.528825 0.843739 -0.091914 
0.533218 0.840551 0.095668 
0.571227 0.817541 0.072977 
0.616765 0.785192 0.055453 
0.661121 0.748974 0.044240 
0.701743 0.711470 0.036975 
0.738247 0.673779 0.031833 
0.770915 0.636331 0.027800 
0.800142 0.599315 0.024367 
0.826263 0.562882 0.021292 
0.849519 0.527234 0.018463 
0.870076 0.492663 0.015836 
0.888061 0.459530 0.013408 
0.903597 0.428237 0.011191 
0.916833 0.399166 0.009204 
0.927950 0.372629 0.007465 
0.937166 0.348832 0.005980 
0.944716 0.327857 0.004745 
0.950838 0.309666 0.003742 
0.955763 0.294125 0.002951 
0.959697 0.281027 0.002341 
0.962822 0.270129 0.001884 
0.965290 0.261175 0.001552 
0.967223 0.253923 0.001319 
0.968719 0.248156 0.001165 
0.969850 0.243698 0.001070 
0.970668 0.240421 0.001020 
0.971203 0.238251 0.001002 
0.971466 0.237175 0.001005 
0.971449 0.237245 0.001019 
0.971120 0.238589 0.001029 
0.970422 0.241414 0.001022 
0.969265 0.246018 0.000975 
0.967520 0.252795 0.000860 
0.965003 0.262238 0.000636 
0.961463 0.274933 0.000249 
0.956562 0.291528 -0.000370 
0.949857 0.312682 -0.001304 
0.940790 0.338980 -0.002643 
0.928702 0.370799 -0.004474 
0.912880 0.408171 -0.006865 
0.892644 0.450654 -0.009843 
0.867480 0.497291 -0.013390 
0.837149 0.546696 -0.017455 
0.801730 0.597281 -0.021997 
0.761558 0.647531 -0.027088 
0.717094 0.696191 -0.033079 
0.668906 0.742222 -0.040869 
0.618080 0.784379 -0.052217 
0.567696 0.820300 -0.069489 
0.526937 0.844943 -0.091696 
0.531068 0.841960 0.095236 
0.569148 0.819019 0.072655 
0.614852 0.786707 0.055215 
0.659472 0.750437 0.044045 
0.700449 0.712753 0.036793 
0.737384 0.674733 0.031638 
0.770533 0.636803 0.027571 
0.800260 0.599169 0.024087 
0.826863 0.562013 0.020948 
0.850544 0.525594 0.018048 
0.871437 0.490267 0.015353 
0.889650 0.456463 0.012865 
0.905300 0.424640 0.010605 
0.918546 0.395221 0.008595 
0.929589 0.368533 0.006853 
0.938670 0.344776 0.005383 
0.946046 0.324005 0.004176 
0.951978 0.306150 0.003212 
0.956708 0.291038 0.002462 
0.960454 0.278431 0.001896 
0.963402 0.268056 0.001480 
0.965704 0.259641 0.001185 
0.967484 0.252932 0.000985 
0.968835 0.247707 0.000857 
0.969827 0.243794 0.000783 
0.970507 0.241071 0.000749 
0.970902 0.239477 0.000741 
0.971016 0.239013 0.000747 
0.970835 0.239749 0.000757 
0.970318 0.241830 0.000756 
0.969400 0.245484 0.000726 
0.967981 0.251024 0.000645 
0.965916 0.258856 0.000480 
0.963008 0.269474 0.000189 
0.958989 0.283444 -0.000284 
0.953507 0.301368 -0.001007 
0.946115 0.323826 -0.002056 
0.936265 0.351276 -0.003513 
0.923341 0.383943 -0.005448 
0.906705 0.421690 -0.007905 
0.885799 0.463941 -0.010895 
0.860241 0.509685 -0.014383 
0.829904 0.557606 -0.018320 
0.794911 0.606301 -0.022683 
0.755550 0.654510 -0.027573 
0.712154 0.701230 -0.033371 
0.665124 0.745607 -0.041000 