# OOMMF: rectangular mesh v0.99 
# Segment count: 1 
# Begin: Segment 
# Begin: Header 
# Title: model.omf 
# Desc: 
# meshunit: unknown 
# xbase: 0 
# ybase: 0 
# zbase: 0 
# xstepsize: 1
# ystepsize: 1 
# zstepsize: 1 
# xnodes: 50 
# ynodes: 50 
# znodes: 4 
# xmin: -0.5 
# ymin: -0.5 
# zmin: -0.5 
# xmax: 49.500000 
# ymax: 49.500000 
# zmax: 3.500000 
# valueunit: Ms 
# valuemultiplier: 1 
# ValueRangeMaxMag:  1. 
# ValueRangeMinMag:  1e-8 
# End: Header 
# Begin: data text 
0.753235 0.639200 0.155115 
0.790434 0.597198 0.136269 
0.826693 0.549858 0.119315 
0.856836 0.504577 0.105988 
0.880881 0.463617 0.095432 
0.899919 0.427338 0.086766 
0.915075 0.395386 0.079424 
0.927269 0.367197 0.073071 
0.937199 0.342203 0.067500 
0.945383 0.319900 0.062568 
0.952205 0.299869 0.058171 
0.957947 0.281774 0.054227 
0.962821 0.265347 0.050672 
0.966984 0.250380 0.047455 
0.970558 0.236714 0.044535 
0.973637 0.224223 0.041881 
0.976297 0.212808 0.039469 
0.978596 0.202385 0.037276 
0.980587 0.192883 0.035286 
0.982312 0.184236 0.033482 
0.983807 0.176379 0.031849 
0.985105 0.169248 0.030374 
0.986235 0.162780 0.029041 
0.987221 0.156908 0.027838 
0.988085 0.151569 0.026750 
0.988846 0.146699 0.025765 
0.989520 0.142237 0.024870 
0.990122 0.138127 0.024053 
0.990664 0.134316 0.023304 
0.991156 0.130759 0.022615 
0.991606 0.127417 0.021978 
0.992019 0.124259 0.021387 
0.992401 0.121267 0.020840 
0.992754 0.118434 0.020335 
0.993077 0.115771 0.019875 
0.993369 0.113309 0.019467 
0.993625 0.111105 0.019122 
0.993835 0.109254 0.018853 
0.993987 0.107894 0.018681 
0.994060 0.107225 0.018629 
0.994027 0.107520 0.018714 
0.993846 0.109141 0.018940 
0.993460 0.112548 0.019261 
0.992789 0.118276 0.019505 
0.991737 0.126844 0.019210 
0.990208 0.138529 0.017277 
0.988185 0.152841 0.011360 
0.985852 0.167591 -0.002911 
0.983555 0.177853 -0.031416 
0.981345 0.177849 -0.073015 
0.728369 0.669831 0.144241 
0.766854 0.630660 0.119174 
0.806309 0.582996 0.099903 
0.839449 0.536484 0.086657 
0.865979 0.494101 0.077101 
0.887056 0.456375 0.069671 
0.903904 0.422988 0.063547 
0.917520 0.393391 0.058315 
0.928657 0.367024 0.053752 
0.937875 0.343392 0.049721 
0.945587 0.322084 0.046130 
0.952098 0.302767 0.042910 
0.957639 0.285179 0.040007 
0.962382 0.269117 0.037381 
0.966460 0.254423 0.034998 
0.969976 0.240974 0.032834 
0.973014 0.228673 0.030868 
0.975641 0.217437 0.029084 
0.977914 0.207195 0.027468 
0.979881 0.197879 0.026006 
0.981586 0.189421 0.024686 
0.983063 0.181753 0.023497 
0.984347 0.174806 0.022428 
0.985466 0.168510 0.021465 
0.986445 0.162794 0.020599 
0.987306 0.157589 0.019818 
0.988068 0.152828 0.019112 
0.988747 0.148450 0.018472 
0.989358 0.144399 0.017889 
0.989911 0.140623 0.017355 
0.990416 0.137084 0.016866 
0.990879 0.133751 0.016417 
0.991305 0.130604 0.016006 
0.991697 0.127643 0.015634 
0.992053 0.124884 0.015302 
0.992371 0.122371 0.015017 
0.992642 0.120178 0.014789 
0.992855 0.118427 0.014631 
0.992990 0.117296 0.014559 
0.993020 0.117041 0.014590 
0.992902 0.118020 0.014736 
0.992574 0.120719 0.014990 
0.991940 0.125781 0.015292 
0.990858 0.134020 0.015455 
0.989113 0.146393 0.014993 
0.986399 0.163875 0.012766 
0.982315 0.187128 0.006302 
0.976389 0.215828 -0.009103 
0.968075 0.247446 -0.040023 
0.957667 0.274926 -0.085384 
0.701524 0.699788 0.134765 
0.739760 0.664309 0.106998 
0.781187 0.618329 0.086116 
0.817135 0.571850 0.072652 
0.846453 0.528649 0.063618 
0.870027 0.489700 0.056981 
0.889043 0.454897 0.051692 
0.904524 0.423797 0.047250 
0.917268 0.395899 0.043405 
0.927872 0.370746 0.040020 
0.936783 0.347948 0.037008 
0.944336 0.327189 0.034307 
0.950781 0.308219 0.031873 
0.956310 0.290844 0.029671 
0.961071 0.274914 0.027675 
0.965178 0.260312 0.025863 
0.968726 0.246946 0.024220 
0.971793 0.234736 0.022733 
0.974444 0.223610 0.021389 
0.976735 0.213500 0.020179 
0.978715 0.204333 0.019092 
0.980429 0.196038 0.018118 
0.981914 0.188538 0.017246 
0.983206 0.181757 0.016468 
0.984333 0.175615 0.015773 
0.985321 0.170036 0.015151 
0.986194 0.164947 0.014594 
0.986971 0.160281 0.014094 
0.987667 0.155974 0.013644 
0.988296 0.151975 0.013237 
0.988867 0.148241 0.012870 
0.989390 0.144742 0.012539 
0.989868 0.141463 0.012243 
0.990302 0.138411 0.011984 
0.990692 0.135614 0.011764 
0.991030 0.133135 0.011591 
0.991305 0.131080 0.011472 
0.991499 0.129613 0.011421 
0.991582 0.128975 0.011450 
0.991510 0.129514 0.011570 
0.991217 0.131721 0.011784 
0.990597 0.136277 0.012070 
0.989484 0.144113 0.012341 
0.987606 0.156465 0.012370 
0.984514 0.174923 0.011609 
0.979472 0.201388 0.008824 
0.971317 0.237785 0.001421 
0.958384 0.285066 -0.015393 
0.939085 0.340327 -0.047917 
0.916186 0.389597 -0.093896 
0.676558 0.725266 0.127505 
0.714479 0.692590 0.099193 
0.756969 0.648803 0.077794 
0.794950 0.603262 0.064264 
0.826615 0.560024 0.055502 
0.852486 0.520422 0.049290 
0.873603 0.484603 0.044464 
0.890956 0.452283 0.040467 
0.905346 0.423057 0.037031 
0.917393 0.396527 0.034014 
0.927566 0.372344 0.031331 
0.936221 0.350220 0.028926 
0.943628 0.329926 0.026759 
0.949994 0.311282 0.024798 
0.955481 0.294153 0.023021 
0.960218 0.278430 0.021411 
0.964308 0.264029 0.019954 
0.967840 0.250874 0.018639 
0.970888 0.238896 0.017456 
0.973517 0.228025 0.016396 
0.975785 0.218186 0.015450 
0.977742 0.209301 0.014607 
0.979434 0.201289 0.013860 
0.980900 0.194063 0.013198 
0.982176 0.187539 0.012613 
0.983292 0.181631 0.012095 
0.984275 0.176259 0.011637 
0.985146 0.171350 0.011231 
0.985925 0.166836 0.010871 
0.986625 0.162664 0.010551 
0.987259 0.158789 0.010269 
0.987835 0.155184 0.010022 
0.988356 0.151842 0.009810 
0.988824 0.148778 0.009634 
0.989233 0.146040 0.009499 
0.989574 0.143718 0.009411 
0.989828 0.141957 0.009379 
0.989968 0.140976 0.009413 
0.989950 0.141100 0.009521 
0.989705 0.142794 0.009707 
0.989129 0.146714 0.009959 
0.988052 0.153781 0.010228 
0.986195 0.165262 0.010389 
0.983085 0.182867 0.010151 
0.977916 0.208809 0.008881 
0.969326 0.245724 0.005257 
0.955145 0.296119 -0.003322 
0.932476 0.360600 -0.021348 
0.899529 0.433492 -0.054156 
0.863418 0.494801 -0.098395 
0.654565 0.746116 0.121888 
0.692347 0.715430 0.093895 
0.735490 0.673634 0.072599 
0.774878 0.629333 0.059186 
0.808339 0.586536 0.050621 
0.836101 0.546755 0.044655 
0.859042 0.510333 0.040087 
0.878078 0.477136 0.036337 
0.893989 0.446863 0.033126 
0.907392 0.419190 0.030311 
0.918768 0.393818 0.027808 
0.928483 0.370495 0.025564 
0.936820 0.349018 0.023541 
0.944000 0.329230 0.021710 
0.950195 0.311012 0.020053 
0.955542 0.294270 0.018553 
0.960158 0.278928 0.017199 
0.964138 0.264918 0.015981 
0.967567 0.252174 0.014890 
0.970518 0.240626 0.013918 
0.973057 0.230196 0.013056 
0.975242 0.220800 0.012295 
0.977124 0.212351 0.011625 
0.978751 0.204755 0.011038 
0.980162 0.197919 0.010525 
0.981392 0.191750 0.010076 
0.982471 0.186162 0.009685 
0.983425 0.181075 0.009343 
0.984273 0.176420 0.009046 
0.985033 0.172141 0.008788 
0.985717 0.168194 0.008567 
0.986332 0.164558 0.008382 
0.986882 0.161234 0.008231 
0.987365 0.158254 0.008119 
0.987774 0.155687 0.008049 
0.988092 0.153657 0.008026 
0.988293 0.152358 0.008060 
0.988335 0.152077 0.008155 
0.988155 0.153236 0.008315 
0.987651 0.156435 0.008531 
0.986666 0.162522 0.008768 
0.984938 0.172677 0.008944 
0.982031 0.188510 0.008878 
0.977201 0.212156 0.008204 
0.969182 0.246269 0.006207 
0.955883 0.293744 0.001531 
0.934186 0.356692 -0.008276 
0.900536 0.433934 -0.027118 
0.854307 0.516391 -0.059163 
0.807479 0.581276 -0.100478 
0.635634 0.763014 0.117381 
0.673402 0.733780 0.089981 
0.717012 0.693634 0.069042 
0.757395 0.650564 0.055846 
0.792200 0.608413 0.047457 
0.821456 0.568748 0.041658 
0.845905 0.532031 0.037248 
0.866383 0.498245 0.033644 
0.883632 0.467184 0.030565 
0.898254 0.438593 0.027866 
0.910725 0.412228 0.025466 
0.921417 0.387876 0.023312 
0.930618 0.365367 0.021368 
0.938556 0.344571 0.019610 
0.945409 0.325387 0.018018 
0.951326 0.307739 0.016580 
0.956429 0.291563 0.015285 
0.960824 0.276800 0.014124 
0.964601 0.263388 0.013089 
0.967844 0.251255 0.012172 
0.970626 0.240324 0.011365 
0.973013 0.230504 0.010658 
0.975063 0.221700 0.010042 
0.976828 0.213813 0.009507 
0.978354 0.206739 0.009045 
0.979680 0.200382 0.008647 
0.980838 0.194647 0.008305 
0.981857 0.189451 0.008011 
0.982760 0.184723 0.007762 
0.983564 0.180404 0.007552 
0.984281 0.176458 0.007379 
0.984918 0.172868 0.007241 
0.985479 0.169649 0.007140 
0.985957 0.166851 0.007078 
0.986340 0.164572 0.007058 
0.986605 0.162976 0.007087 
0.986713 0.162312 0.007168 
0.986607 0.162950 0.007303 
0.986195 0.165419 0.007484 
0.985333 0.170470 0.007686 
0.983791 0.179150 0.007846 
0.981188 0.192894 0.007838 
0.976890 0.213615 0.007420 
0.969822 0.243737 0.006155 
0.958209 0.286049 0.003278 
0.939293 0.343107 -0.002526 
0.909380 0.415750 -0.013421 
0.865197 0.500371 -0.032596 
0.808323 0.585338 -0.063189 
0.754640 0.648281 -0.101241 
0.619489 0.776734 0.113657 
0.657296 0.748606 0.086893 
0.701264 0.709804 0.066383 
0.742379 0.667846 0.053435 
0.778198 0.626390 0.045208 
0.808626 0.586993 0.039537 
0.834303 0.550179 0.035237 
0.855993 0.516013 0.031730 
0.874394 0.484364 0.028734 
0.890088 0.455041 0.026108 
0.903538 0.427849 0.023770 
0.915112 0.402618 0.021669 
0.925099 0.379211 0.019772 
0.933728 0.357528 0.018054 
0.941184 0.337490 0.016501 
0.947620 0.319042 0.015099 
0.953165 0.302133 0.013840 
0.957932 0.286714 0.012715 
0.962020 0.272726 0.011718 
0.965521 0.260099 0.010839 
0.968515 0.248753 0.010071 
0.971074 0.238592 0.009405 
0.973265 0.229513 0.008829 
0.975145 0.221410 0.008336 
0.976764 0.214172 0.007914 
0.978164 0.207695 0.007556 
0.979383 0.201880 0.007254 
0.980451 0.196641 0.007000 
0.981390 0.191903 0.006790 
0.982221 0.187613 0.006619 
0.982954 0.183738 0.006486 
0.983596 0.180271 0.006388 
0.984147 0.177243 0.006328 
0.984597 0.174728 0.006307 
0.984927 0.172856 0.006328 
0.985104 0.171839 0.006395 
0.985077 0.171991 0.006507 
0.984764 0.173769 0.006658 
0.984039 0.177820 0.006828 
0.982704 0.185053 0.006968 
0.980437 0.196708 0.006984 
0.976713 0.214443 0.006702 
0.970661 0.240381 0.005824 
0.960852 0.277036 0.003861 
0.945040 0.326956 0.000042 
0.920020 0.391812 -0.006818 
0.882108 0.470684 -0.018509 
0.829166 0.557741 -0.037536 
0.765218 0.640346 -0.066322 
0.708289 0.698622 -0.101262 
0.605748 0.787942 0.110527 
0.643608 0.760691 0.084363 
0.687858 0.722994 0.064275 
0.729528 0.682004 0.051571 
0.766127 0.641216 0.043492 
0.797484 0.602147 0.037924 
0.824161 0.565351 0.033707 
0.846867 0.530943 0.030268 
0.866257 0.498850 0.027330 
0.882887 0.468933 0.024752 
0.897205 0.441043 0.022453 
0.909569 0.415052 0.020384 
0.920265 0.390858 0.018514 
0.929520 0.368389 0.016820 
0.937520 0.347595 0.015289 
0.944423 0.328439 0.013909 
0.950363 0.310886 0.012673 
0.955459 0.294897 0.011574 
0.959819 0.280419 0.010604 
0.963541 0.267382 0.009755 
0.966714 0.255702 0.009018 
0.969417 0.245277 0.008384 
0.971722 0.235998 0.007843 
0.973692 0.227750 0.007384 
0.975381 0.220416 0.006997 
0.976836 0.213884 0.006674 
0.978097 0.208052 0.006406 
0.979194 0.202830 0.006187 
0.980154 0.198146 0.006011 
0.980994 0.193949 0.005875 
0.981726 0.190213 0.005775 
0.982354 0.186946 0.005712 
0.982873 0.184196 0.005687 
0.983270 0.182065 0.005699 
0.983517 0.180723 0.005752 
0.983570 0.180432 0.005844 
0.983358 0.181579 0.005969 
0.982773 0.184716 0.006112 
0.981646 0.190612 0.006234 
0.979709 0.200326 0.006265 
0.976536 0.215269 0.006072 
0.971431 0.237261 0.005438 
0.963271 0.268500 0.004021 
0.950294 0.311351 0.001312 
0.929912 0.367766 -0.003407 
0.898824 0.438169 -0.011130 
0.853930 0.519868 -0.023253 
0.794677 0.605596 -0.041741 
0.727039 0.683157 -0.068628 
0.669495 0.735940 -0.100845 
0.594040 0.797170 0.107874 
0.631947 0.770635 0.082249 
0.676420 0.733856 0.062549 
0.718521 0.693700 0.050069 
0.755736 0.653520 0.042122 
0.787841 0.614788 0.036640 
0.815344 0.578064 0.032487 
0.838906 0.543497 0.029098 
0.859149 0.511055 0.026201 
0.876598 0.480641 0.023654 
0.891686 0.452150 0.021380 
0.904757 0.425489 0.019330 
0.916089 0.400594 0.017474 
0.925907 0.377422 0.015793 
0.934396 0.355951 0.014274 
0.941715 0.336165 0.012907 
0.948003 0.318048 0.011687 
0.953386 0.301568 0.010606 
0.957978 0.286678 0.009657 
0.961886 0.273308 0.008833 
0.965205 0.261368 0.008124 
0.968022 0.250752 0.007519 
0.970415 0.241343 0.007008 
0.972451 0.233016 0.006580 
0.974189 0.225649 0.006224 
0.975679 0.219123 0.005932 
0.976963 0.213333 0.005696 
0.978073 0.208188 0.005508 
0.979036 0.203617 0.005362 
0.979869 0.199574 0.005256 
0.980581 0.196046 0.005187 
0.981175 0.193054 0.005155 
0.981641 0.190669 0.005158 
0.981959 0.189025 0.005197 
0.982091 0.188334 0.005270 
0.981978 0.188918 0.005374 
0.981528 0.191238 0.005494 
0.980599 0.195942 0.005602 
0.978971 0.203921 0.005642 
0.976297 0.216365 0.005514 
0.972027 0.234816 0.005055 
0.965286 0.261164 0.004011 
0.954712 0.297525 0.002016 
0.938279 0.345876 -0.001421 
0.913265 0.407307 -0.006916 
0.876642 0.480902 -0.015240 
0.826295 0.562569 -0.027443 
0.763220 0.644561 -0.045135 
0.694518 0.716041 -0.070215 
0.637957 0.763530 -0.100167 
0.584034 0.804829 0.105615 
0.621976 0.778891 0.080465 
0.666625 0.742884 0.061110 
0.709072 0.703443 0.048832 
0.746785 0.663801 0.041001 
0.779505 0.625384 0.035591 
0.807702 0.588750 0.031488 
0.831997 0.554066 0.028137 
0.852980 0.521332 0.025267 
0.871153 0.490485 0.022740 
0.886926 0.461457 0.020479 
0.900632 0.434192 0.018438 
0.912536 0.408659 0.016587 
0.922859 0.384849 0.014910 
0.931784 0.362767 0.013396 
0.939470 0.342420 0.012036 
0.946061 0.323807 0.010826 
0.951689 0.306908 0.009760 
0.956476 0.291678 0.008829 
0.960534 0.278046 0.008027 
0.963968 0.265918 0.007342 
0.966870 0.255180 0.006764 
0.969324 0.245706 0.006281 
0.971403 0.237363 0.005882 
0.973169 0.230022 0.005556 
0.974676 0.223560 0.005293 
0.975965 0.217868 0.005085 
0.977071 0.212855 0.004926 
0.978020 0.208455 0.004808 
0.978828 0.204628 0.004730 
0.979503 0.201373 0.004687 
0.980043 0.198731 0.004680 
0.980433 0.196798 0.004706 
0.980644 0.195743 0.004764 
0.980627 0.195826 0.004849 
0.980305 0.197428 0.004950 
0.979560 0.201090 0.005044 
0.978211 0.207553 0.005090 
0.975977 0.217815 0.005010 
0.972424 0.233172 0.004682 
0.966872 0.255232 0.003911 
0.958271 0.285851 0.002423 
0.945059 0.326900 -0.000148 
0.925070 0.379773 -0.004238 
0.895679 0.444581 -0.010332 
0.854433 0.519215 -0.018979 
0.800326 0.598764 -0.030977 
0.735548 0.675787 -0.047749 
0.667533 0.741166 -0.071220 
0.612763 0.783998 -0.099348 
0.575450 0.811238 0.103685 
0.613416 0.785804 0.078950 
0.658207 0.750450 0.059901 
0.700937 0.711619 0.047801 
0.739064 0.672443 0.040070 
0.772304 0.634304 0.034721 
0.801094 0.597753 0.030657 
0.826028 0.562966 0.027332 
0.847664 0.529968 0.024480 
0.866482 0.498725 0.021964 
0.882872 0.469200 0.019706 
0.897149 0.441375 0.017665 
0.909569 0.415251 0.015812 
0.920345 0.390853 0.014133 
0.929655 0.368214 0.012617 
0.937663 0.347365 0.011261 
0.944513 0.328319 0.010058 
0.950346 0.311065 0.009003 
0.955289 0.295563 0.008089 
0.959464 0.281738 0.007306 
0.962981 0.269489 0.006645 
0.965940 0.258694 0.006093 
0.968431 0.249217 0.005637 
0.970531 0.240919 0.005266 
0.972305 0.233662 0.004967 
0.973809 0.227318 0.004732 
0.975087 0.221778 0.004551 
0.976173 0.216951 0.004418 
0.977091 0.212776 0.004326 
0.977858 0.209225 0.004272 
0.978478 0.206309 0.004253 
0.978943 0.204091 0.004266 
0.979232 0.202697 0.004309 
0.979307 0.202331 0.004377 
0.979105 0.203306 0.004462 
0.978528 0.206063 0.004545 
0.977428 0.211220 0.004593 
0.975578 0.219605 0.004549 
0.972634 0.232302 0.004318 
0.968066 0.250668 0.003752 
0.961065 0.276309 0.002641 
0.950432 0.310932 0.000701 
0.934475 0.356021 -0.002405 
0.911033 0.412273 -0.007034 
0.877791 0.478853 -0.013526 
0.833028 0.552783 -0.022249 
0.776745 0.628905 -0.033845 
0.711844 0.700578 -0.049685 
0.645523 0.760359 -0.071785 
0.592834 0.799281 -0.098475 
0.568057 0.816640 0.102033 
0.606038 0.791635 0.077659 
0.650947 0.756837 0.058878 
0.693916 0.718525 0.046934 
0.732396 0.679744 0.039290 
0.766087 0.641838 0.033991 
0.795399 0.605345 0.029958 
0.820900 0.570450 0.026651 
0.843123 0.537194 0.023808 
0.862524 0.505568 0.021293 
0.879473 0.475569 0.019032 
0.894268 0.447209 0.016982 
0.907154 0.420526 0.015121 
0.918334 0.395579 0.013433 
0.927985 0.372428 0.011913 
0.936268 0.351127 0.010556 
0.943336 0.331706 0.009357 
0.949333 0.314161 0.008313 
0.954396 0.298452 0.007414 
0.958653 0.284499 0.006652 
0.962223 0.272195 0.006013 
0.965213 0.261406 0.005486 
0.967717 0.251987 0.005057 
0.969816 0.243791 0.004713 
0.971580 0.236671 0.004442 
0.973063 0.230499 0.004233 
0.974313 0.225161 0.004078 
0.975362 0.220573 0.003969 
0.976235 0.216678 0.003900 
0.976944 0.213460 0.003867 
0.977490 0.210948 0.003867 
0.977859 0.209227 0.003896 
0.978024 0.208455 0.003949 
0.977934 0.208877 0.004019 
0.977509 0.210854 0.004091 
0.976629 0.214893 0.004140 
0.975111 0.221678 0.004121 
0.972682 0.232110 0.003962 
0.968925 0.247330 0.003550 
0.963217 0.268710 0.002723 
0.954637 0.297770 0.001258 
0.941873 0.335968 -0.001114 
0.923195 0.384302 -0.004683 
0.896592 0.442751 -0.009713 
0.860201 0.509692 -0.016410 
0.813051 0.581654 -0.025014 
0.755899 0.653692 -0.036101 
0.691920 0.720166 -0.051067 
0.627767 0.775060 -0.072038 
0.577156 0.810780 -0.097610 
0.561665 0.821224 0.100614 
0.599657 0.796587 0.076556 
0.644665 0.762261 0.058009 
0.687843 0.724388 0.046202 
0.726637 0.685934 0.038633 
0.760730 0.648210 0.033376 
0.790512 0.611742 0.029365 
0.816528 0.576718 0.026069 
0.839287 0.543192 0.023226 
0.859223 0.511182 0.020705 
0.876685 0.480712 0.018432 
0.891954 0.451830 0.016369 
0.905261 0.424609 0.014492 
0.916800 0.399141 0.012792 
0.926747 0.375517 0.011263 
0.935264 0.353813 0.009903 
0.942508 0.334071 0.008709 
0.948630 0.316295 0.007674 
0.953776 0.300442 0.006791 
0.958083 0.286427 0.006049 
0.961677 0.274131 0.005434 
0.964671 0.263410 0.004932 
0.967165 0.254108 0.004530 
0.969243 0.246068 0.004212 
0.970977 0.239140 0.003967 
0.972424 0.233188 0.003784 
0.973630 0.228104 0.003652 
0.974628 0.223803 0.003566 
0.975439 0.220240 0.003518 
0.976074 0.217412 0.003503 
0.976527 0.215367 0.003518 
0.976780 0.214214 0.003557 
0.976795 0.214145 0.003614 
0.976509 0.215446 0.003675 
0.975823 0.218529 0.003722 
0.974592 0.223956 0.003720 
0.972596 0.232473 0.003614 
0.969509 0.245031 0.003318 
0.964847 0.262796 0.002705 
0.957900 0.287097 0.001603 
0.947655 0.319295 -0.000208 
0.932748 0.360516 -0.002971 
0.911504 0.411233 -0.006912 
0.882173 0.470767 -0.012201 
0.843409 0.536938 -0.018938 
0.794893 0.606136 -0.027291 
0.737846 0.673908 -0.037830 
0.675398 0.735616 -0.052020 
0.613542 0.786365 -0.072083 
0.564854 0.819494 -0.096794 
0.556118 0.825139 0.099392 
0.594118 0.800816 0.075609 
0.639218 0.766891 0.057268 
0.682586 0.729382 0.045580 
0.721667 0.691192 0.038077 
0.756130 0.653596 0.032853 
0.786347 0.617110 0.028858 
0.812841 0.581925 0.025565 
0.836100 0.548107 0.022716 
0.856534 0.515696 0.020181 
0.874471 0.484748 0.017890 
0.890175 0.455344 0.015806 
0.903863 0.427596 0.013910 
0.915721 0.401630 0.012193 
0.925921 0.377567 0.010653 
0.934628 0.355504 0.009289 
0.942007 0.335497 0.008098 
0.948215 0.317550 0.007074 
0.953409 0.301617 0.006207 
0.957734 0.287604 0.005486 
0.961323 0.275379 0.004896 
0.964297 0.264786 0.004420 
0.966759 0.255659 0.004045 
0.968797 0.247829 0.003754 
0.970483 0.241142 0.003534 
0.971878 0.235460 0.003375 
0.973025 0.230676 0.003266 
0.973957 0.226712 0.003200 
0.974691 0.223532 0.003170 
0.975235 0.221148 0.003170 
0.975578 0.219629 0.003196 
0.975694 0.219113 0.003239 
0.975534 0.219823 0.003291 
0.975021 0.222087 0.003335 
0.974037 0.226363 0.003344 
0.972408 0.233265 0.003276 
0.969875 0.243583 0.003065 
0.966062 0.258299 0.002614 
0.960418 0.278558 0.001786 
0.952161 0.305595 0.000408 
0.940225 0.340550 -0.001726 
0.923249 0.384171 -0.004820 
0.899701 0.436414 -0.009034 
0.868161 0.496073 -0.014451 
0.827782 0.560652 -0.021100 
0.778736 0.626676 -0.029122 
0.722456 0.690308 -0.039127 
0.661831 0.747802 -0.052653 
0.602199 0.795093 -0.071998 
0.555219 0.826140 -0.096050 
0.551289 0.828498 0.098338 
0.589300 0.804444 0.074796 
0.634488 0.770855 0.056634 
0.678038 0.733645 0.045052 
0.717391 0.695656 0.037603 
0.752204 0.658133 0.032407 
0.782834 0.621581 0.028420 
0.809782 0.586192 0.025124 
0.833516 0.552047 0.022262 
0.854420 0.519209 0.019707 
0.872803 0.487763 0.017391 
0.888908 0.457830 0.015280 
0.902939 0.429560 0.013359 
0.915075 0.403116 0.011623 
0.925487 0.378647 0.010070 
0.934343 0.356270 0.008702 
0.941814 0.336051 0.007514 
0.948070 0.317995 0.006502 
0.953276 0.302047 0.005654 
0.957587 0.288101 0.004956 
0.961145 0.276010 0.004391 
0.964074 0.265605 0.003943 
0.966482 0.256707 0.003594 
0.968462 0.249140 0.003330 
0.970086 0.242743 0.003136 
0.971413 0.237378 0.002999 
0.972487 0.232939 0.002911 
0.973338 0.229357 0.002863 
0.973982 0.226609 0.002848 
0.974419 0.224722 0.002860 
0.974634 0.223787 0.002891 
0.974592 0.223970 0.002933 
0.974232 0.225527 0.002972 
0.973463 0.228827 0.002988 
0.972143 0.234369 0.002947 
0.970071 0.242806 0.002799 
0.966949 0.254959 0.002468 
0.962350 0.271807 0.001850 
0.955669 0.294442 0.000804 
0.946073 0.323954 -0.000840 
0.932476 0.361217 -0.003260 
0.913587 0.406589 -0.006616 
0.888072 0.459573 -0.011004 
0.854865 0.518589 -0.016440 
0.813548 0.581047 -0.022912 
0.764606 0.643772 -0.030571 
0.709496 0.703569 -0.040083 
0.650771 0.757418 -0.053057 
0.593186 0.801853 -0.071841 
0.547686 0.831228 -0.095392 
0.547077 0.831393 0.097427 
0.585103 0.807567 0.074095 
0.630380 0.774257 0.056092 
0.674110 0.737283 0.044600 
0.713730 0.699433 0.037200 
0.748885 0.661925 0.032023 
0.779918 0.625254 0.028040 
0.807308 0.589612 0.024733 
0.831499 0.555096 0.021851 
0.852855 0.521793 0.019268 
0.871658 0.489823 0.016921 
0.888134 0.459347 0.014778 
0.902473 0.430556 0.012829 
0.914847 0.403650 0.011070 
0.925427 0.378808 0.009504 
0.934388 0.356165 0.008132 
0.941911 0.335791 0.006951 
0.948176 0.317690 0.005952 
0.953360 0.301793 0.005124 
0.957626 0.287980 0.004451 
0.961125 0.276087 0.003914 
0.963986 0.265929 0.003494 
0.966322 0.257315 0.003173 
0.968226 0.250060 0.002935 
0.969771 0.243999 0.002765 
0.971017 0.238995 0.002651 
0.972005 0.234945 0.002582 
0.972762 0.231790 0.002550 
0.973301 0.229519 0.002547 
0.973616 0.228177 0.002566 
0.973686 0.227879 0.002598 
0.973466 0.228818 0.002632 
0.972883 0.231283 0.002651 
0.971828 0.235678 0.002628 
0.970139 0.242537 0.002526 
0.967583 0.252542 0.002286 
0.963827 0.266522 0.001825 
0.958400 0.285428 0.001033 
0.950652 0.310260 -0.000228 
0.939725 0.341925 -0.002113 
0.924558 0.381012 -0.004774 
0.903971 0.427513 -0.008321 
0.876866 0.480565 -0.012795 
0.842511 0.538372 -0.018164 
0.800813 0.598417 -0.024405 
0.752422 0.657918 -0.031699 
0.698687 0.714265 -0.040775 
0.641809 0.765010 -0.053301 
0.586054 0.807098 -0.071653 
0.541816 0.835131 -0.094824 
0.543398 0.833894 0.096639 
0.581445 0.810259 0.073492 
0.626820 0.777176 0.055626 
0.670735 0.740378 0.044215 
0.710624 0.702606 0.036854 
0.746123 0.665053 0.031692 
0.777556 0.628203 0.027704 
0.805384 0.592252 0.024380 
0.830026 0.557312 0.021471 
0.851817 0.523499 0.018854 
0.871020 0.490972 0.016469 
0.887838 0.459934 0.014290 
0.902449 0.430622 0.012308 
0.915020 0.403272 0.010526 
0.925724 0.378093 0.008947 
0.934747 0.355234 0.007572 
0.942279 0.334768 0.006399 
0.948514 0.316688 0.005418 
0.953641 0.300911 0.004613 
0.957833 0.287298 0.003967 
0.961247 0.275666 0.003459 
0.964020 0.265813 0.003069 
0.966265 0.257536 0.002776 
0.968076 0.250642 0.002565 
0.969530 0.244962 0.002418 
0.970681 0.240360 0.002324 
0.971570 0.236740 0.002273 
0.972221 0.234052 0.002254 
0.972642 0.232300 0.002260 
0.972821 0.231549 0.002282 
0.972728 0.231936 0.002310 
0.972311 0.233680 0.002329 
0.971482 0.237102 0.002320 
0.970115 0.242636 0.002251 
0.968026 0.250843 0.002077 
0.964953 0.262417 0.001735 
0.960529 0.278177 0.001138 
0.954247 0.299018 0.000173 
0.945432 0.325818 -0.001290 
0.933224 0.359279 -0.003389 
0.916622 0.399706 -0.006239 
0.894594 0.446770 -0.009909 
0.866282 0.499348 -0.014393 
0.831239 0.555568 -0.019635 
0.789593 0.613096 -0.025620 
0.742037 0.669567 -0.032569 
0.689748 0.722873 -0.041271 
0.634591 0.770998 -0.053437 
0.580440 0.811162 -0.071459 
0.537269 0.838117 -0.094345 
0.540184 0.836058 0.095958 
0.578263 0.812580 0.072972 
0.623747 0.779673 0.055228 
0.667858 0.742994 0.043886 
0.708027 0.705239 0.036557 
0.743879 0.667576 0.031402 
0.775720 0.630482 0.027404 
0.803989 0.594158 0.024057 
0.829078 0.558734 0.021113 
0.851297 0.524360 0.018454 
0.870879 0.491237 0.016025 
0.888010 0.459616 0.013804 
0.902856 0.429782 0.011788 
0.915581 0.402010 0.009981 
0.926365 0.376535 0.008390 
0.935402 0.353516 0.007017 
0.942900 0.333023 0.005855 
0.949067 0.315036 0.004895 
0.954103 0.299452 0.004117 
0.958191 0.286107 0.003501 
0.961497 0.274799 0.003024 
0.964160 0.265308 0.002664 
0.966297 0.257419 0.002401 
0.968003 0.250931 0.002215 
0.969351 0.245673 0.002091 
0.970396 0.241512 0.002016 
0.971175 0.238360 0.001980 
0.971708 0.236177 0.001972 
0.971997 0.234983 0.001983 
0.972026 0.234863 0.002004 
0.971757 0.235975 0.002022 
0.971124 0.238567 0.002021 
0.970028 0.242983 0.001976 
0.968326 0.249683 0.001851 
0.965811 0.259244 0.001599 
0.962195 0.272360 0.001149 
0.957082 0.289817 0.000413 
0.949940 0.312431 -0.000719 
0.940084 0.340936 -0.002366 
0.926681 0.375820 -0.004642 
0.908816 0.417126 -0.007631 
0.885622 0.464268 -0.011362 
0.856464 0.515966 -0.015799 
0.821117 0.570378 -0.020876 
0.779836 0.625419 -0.026598 
0.733276 0.679118 -0.033235 
0.682413 0.729780 -0.041622 
0.628820 0.775708 -0.053505 
0.576055 0.814297 -0.071278 
0.533783 0.840386 -0.093953 
0.537383 0.837929 0.095369 
0.575505 0.814576 0.072525 
0.621113 0.781797 0.054888 
0.665438 0.745179 0.043605 
0.705904 0.707376 0.036301 
0.742126 0.669536 0.031147 
0.774390 0.632126 0.027132 
0.803110 0.595357 0.023753 
0.828649 0.559383 0.020766 
0.851287 0.524390 0.018059 
0.871230 0.490628 0.015579 
0.888644 0.458404 0.013312 
0.903685 0.428051 0.011260 
0.916517 0.399884 0.009430 
0.927331 0.374160 0.007829 
0.936337 0.351044 0.006460 
0.943757 0.330598 0.005315 
0.949816 0.312780 0.004379 
0.954727 0.297462 0.003632 
0.958685 0.284455 0.003049 
0.961859 0.273533 0.002606 
0.964394 0.264461 0.002278 
0.966407 0.257008 0.002043 
0.967993 0.250968 0.001882 
0.969225 0.246172 0.001780 
0.970153 0.242488 0.001723 
0.970812 0.239837 0.001699 
0.971216 0.238193 0.001699 
0.971364 0.237592 0.001712 
0.971230 0.238137 0.001727 
0.970769 0.240009 0.001731 
0.969905 0.243478 0.001703 
0.968525 0.248913 0.001615 
0.966467 0.256788 0.001429 
0.963505 0.267687 0.001092 
0.959330 0.282288 0.000531 
0.953521 0.301327 -0.000342 
0.945534 0.325520 -0.001629 
0.934690 0.355447 -0.003436 
0.920207 0.391389 -0.005853 
0.901273 0.433160 -0.008932 
0.877185 0.479986 -0.012673 
0.847501 0.530521 -0.017020 
0.812155 0.583031 -0.021912 
0.771451 0.635700 -0.027382 
0.725958 0.686911 -0.033742 
0.676449 0.735298 -0.041871 
0.624248 0.779390 -0.053533 
0.572675 0.816691 -0.071122 
0.531156 0.842084 -0.093642 
0.534951 0.839541 0.094863 
0.573131 0.816282 0.072143 
0.618884 0.783583 0.054598 
0.663445 0.746967 0.043365 
0.704234 0.709051 0.036079 
0.740850 0.670959 0.030919 
0.773558 0.633155 0.026879 
0.802744 0.595862 0.023460 
0.828740 0.559261 0.020423 
0.851790 0.523586 0.017658 
0.872073 0.489143 0.015122 
0.889736 0.456297 0.012806 
0.904926 0.425433 0.010716 
0.917816 0.396906 0.008865 
0.928608 0.370990 0.007259 
0.937532 0.347850 0.005899 
0.944829 0.327530 0.004776 
0.950741 0.309962 0.003870 
0.955496 0.294987 0.003157 
0.959297 0.282388 0.002611 
0.962319 0.271915 0.002202 
0.964709 0.263313 0.001907 
0.966585 0.256342 0.001701 
0.968040 0.250792 0.001565 
0.969144 0.246491 0.001483 
0.969946 0.243317 0.001441 
0.970475 0.241198 0.001428 
0.970742 0.240123 0.001432 
0.970737 0.240143 0.001443 
0.970429 0.241381 0.001449 
0.969765 0.244038 0.001433 
0.968655 0.248406 0.001372 
0.966975 0.254868 0.001237 
0.964547 0.263910 0.000984 
0.961126 0.276108 0.000558 
0.956384 0.292112 -0.000114 
0.949887 0.312590 -0.001117 
0.941089 0.338150 -0.002544 
0.929334 0.369212 -0.004484 
0.913905 0.405868 -0.007005 
0.894103 0.447747 -0.010132 
0.869377 0.493956 -0.013841 
0.839439 0.543153 -0.018071 
0.804322 0.593757 -0.022772 
0.764326 0.644221 -0.028008 
0.719907 0.693231 -0.034130 
0.671650 0.739674 -0.042048 
0.620678 0.782236 -0.053541 
0.570122 0.818487 -0.070995 
0.529233 0.843320 -0.093407 
0.532857 0.840920 0.094431 
0.571111 0.817725 0.071818 
0.617033 0.785058 0.054353 
0.661860 0.748384 0.043162 
0.703003 0.710281 0.035886 
0.740044 0.671857 0.030712 
0.773225 0.633572 0.026639 
0.802898 0.595666 0.023170 
0.829357 0.558359 0.020072 
0.852811 0.521935 0.017243 
0.873409 0.486767 0.014645 
0.891282 0.453284 0.012277 
0.906573 0.421928 0.010151 
0.919464 0.393086 0.008281 
0.930179 0.367047 0.006675 
0.938968 0.343964 0.005331 
0.946096 0.323858 0.004235 
0.951825 0.306624 0.003365 
0.956393 0.292072 0.002691 
0.960012 0.279951 0.002184 
0.962863 0.269986 0.001813 
0.965092 0.261905 0.001550 
0.966819 0.255459 0.001373 
0.968133 0.250434 0.001261 
0.969101 0.246660 0.001197 
0.969769 0.244023 0.001169 
0.970160 0.242462 0.001163 
0.970280 0.241980 0.001169 
0.970114 0.242645 0.001175 
0.969624 0.244598 0.001166 
0.968745 0.248058 0.001125 
0.967379 0.253332 0.001027 
0.965388 0.260817 0.000839 
0.962580 0.270999 0.000516 
0.958695 0.284437 0.000000 
0.953390 0.301739 -0.000779 
0.946227 0.323497 -0.001901 
0.936669 0.350200 -0.003450 
0.924097 0.382119 -0.005498 
0.907867 0.419180 -0.008088 
0.887395 0.460874 -0.011226 
0.862259 0.506249 -0.014874 
0.832288 0.554019 -0.018970 
0.797562 0.602780 -0.023483 
0.758343 0.651232 -0.028508 
0.714964 0.698313 -0.034429 
0.667846 0.743104 -0.042177 