# OOMMF: rectangular mesh v0.99 
# Segment count: 1 
# Begin: Segment 
# Begin: Header 
# Title: model.omf 
# Desc: 
# meshunit: unknown 
# xbase: 0 
# ybase: 0 
# zbase: 0 
# xstepsize: 1
# ystepsize: 1 
# zstepsize: 1 
# xnodes: 50 
# ynodes: 50 
# znodes: 4 
# xmin: -0.5 
# ymin: -0.5 
# zmin: -0.5 
# xmax: 49.500000 
# ymax: 49.500000 
# zmax: 3.500000 
# valueunit: Ms 
# valuemultiplier: 1 
# ValueRangeMaxMag:  1. 
# ValueRangeMinMag:  1e-8 
# End: Header 
# Begin: data text 
0.753234 0.639200 0.155116 
0.790433 0.597198 0.136269 
0.826692 0.549858 0.119315 
0.856836 0.504578 0.105988 
0.880881 0.463617 0.095433 
0.899919 0.427338 0.086767 
0.915075 0.395386 0.079424 
0.927269 0.367197 0.073071 
0.937199 0.342202 0.067499 
0.945384 0.319898 0.062568 
0.952206 0.299867 0.058170 
0.957948 0.281771 0.054226 
0.962822 0.265343 0.050671 
0.966985 0.250376 0.047453 
0.970559 0.236710 0.044533 
0.973639 0.224219 0.041879 
0.976298 0.212803 0.039467 
0.978597 0.202380 0.037274 
0.980588 0.192878 0.035284 
0.982313 0.184231 0.033480 
0.983808 0.176375 0.031848 
0.985106 0.169245 0.030373 
0.986235 0.162777 0.029040 
0.987221 0.156906 0.027837 
0.988085 0.151567 0.026750 
0.988846 0.146698 0.025765 
0.989520 0.142237 0.024870 
0.990122 0.138127 0.024053 
0.990664 0.134317 0.023305 
0.991156 0.130760 0.022616 
0.991606 0.127417 0.021979 
0.992019 0.124260 0.021388 
0.992401 0.121267 0.020840 
0.992754 0.118435 0.020335 
0.993077 0.115771 0.019876 
0.993369 0.113308 0.019468 
0.993625 0.111104 0.019122 
0.993835 0.109253 0.018853 
0.993987 0.107892 0.018681 
0.994061 0.107222 0.018628 
0.994027 0.107516 0.018713 
0.993846 0.109137 0.018939 
0.993460 0.112543 0.019259 
0.992790 0.118269 0.019503 
0.991738 0.126837 0.019206 
0.990209 0.138520 0.017272 
0.988187 0.152829 0.011352 
0.985855 0.167576 -0.002921 
0.983559 0.177833 -0.031431 
0.981348 0.177824 -0.073033 
0.728368 0.669831 0.144241 
0.766854 0.630661 0.119174 
0.806309 0.582997 0.099904 
0.839449 0.536485 0.086658 
0.865979 0.494102 0.077101 
0.887055 0.456375 0.069671 
0.903904 0.422988 0.063547 
0.917520 0.393390 0.058315 
0.928658 0.367022 0.053751 
0.937876 0.343390 0.049720 
0.945587 0.322081 0.046129 
0.952099 0.302764 0.042909 
0.957640 0.285176 0.040006 
0.962383 0.269113 0.037379 
0.966461 0.254418 0.034997 
0.969977 0.240969 0.032832 
0.973015 0.228667 0.030867 
0.975642 0.217432 0.029083 
0.977915 0.207190 0.027466 
0.979882 0.197874 0.026004 
0.981587 0.189416 0.024685 
0.983064 0.181749 0.023496 
0.984348 0.174803 0.022427 
0.985467 0.168508 0.021464 
0.986445 0.162792 0.020598 
0.987306 0.157588 0.019818 
0.988068 0.152828 0.019112 
0.988747 0.148450 0.018472 
0.989358 0.144399 0.017889 
0.989911 0.140624 0.017356 
0.990416 0.137085 0.016867 
0.990879 0.133751 0.016418 
0.991305 0.130605 0.016007 
0.991697 0.127644 0.015634 
0.992053 0.124884 0.015302 
0.992371 0.122370 0.015017 
0.992642 0.120177 0.014789 
0.992855 0.118426 0.014631 
0.992991 0.117294 0.014559 
0.993020 0.117038 0.014589 
0.992902 0.118016 0.014735 
0.992574 0.120714 0.014989 
0.991941 0.125775 0.015290 
0.990859 0.134013 0.015453 
0.989114 0.146384 0.014990 
0.986400 0.163864 0.012761 
0.982318 0.187115 0.006295 
0.976392 0.215812 -0.009113 
0.968080 0.247425 -0.040036 
0.957672 0.274901 -0.085401 
0.701523 0.699788 0.134765 
0.739759 0.664310 0.106999 
0.781186 0.618330 0.086116 
0.817134 0.571850 0.072652 
0.846453 0.528650 0.063618 
0.870027 0.489700 0.056981 
0.889043 0.454896 0.051692 
0.904524 0.423796 0.047250 
0.917268 0.395898 0.043405 
0.927873 0.370744 0.040019 
0.936784 0.347945 0.037007 
0.944337 0.327185 0.034306 
0.950783 0.308214 0.031872 
0.956312 0.290839 0.029670 
0.961072 0.274908 0.027673 
0.965180 0.260306 0.025861 
0.968728 0.246940 0.024218 
0.971795 0.234730 0.022731 
0.974445 0.223605 0.021388 
0.976736 0.213494 0.020177 
0.978716 0.204329 0.019091 
0.980430 0.196034 0.018117 
0.981915 0.188535 0.017246 
0.983206 0.181754 0.016468 
0.984333 0.175613 0.015773 
0.985322 0.170035 0.015151 
0.986194 0.164947 0.014595 
0.986971 0.160281 0.014095 
0.987667 0.155975 0.013645 
0.988296 0.151976 0.013238 
0.988867 0.148242 0.012871 
0.989390 0.144743 0.012540 
0.989868 0.141464 0.012244 
0.990302 0.138411 0.011984 
0.990692 0.135614 0.011764 
0.991030 0.133134 0.011591 
0.991306 0.131079 0.011472 
0.991499 0.129611 0.011421 
0.991582 0.128972 0.011449 
0.991511 0.129510 0.011569 
0.991217 0.131716 0.011783 
0.990598 0.136271 0.012068 
0.989485 0.144105 0.012339 
0.987607 0.156456 0.012367 
0.984516 0.174913 0.011606 
0.979474 0.201376 0.008820 
0.971321 0.237770 0.001415 
0.958390 0.285048 -0.015402 
0.939093 0.340305 -0.047930 
0.916196 0.389572 -0.093912 
0.676558 0.725267 0.127505 
0.714478 0.692591 0.099194 
0.756969 0.648804 0.077795 
0.794950 0.603262 0.064264 
0.826615 0.560024 0.055502 
0.852486 0.520422 0.049290 
0.873603 0.484603 0.044464 
0.890956 0.452282 0.040467 
0.905347 0.423055 0.037030 
0.917394 0.396524 0.034013 
0.927567 0.372341 0.031330 
0.936222 0.350216 0.028925 
0.943629 0.329921 0.026757 
0.949996 0.311277 0.024796 
0.955483 0.294146 0.023020 
0.960220 0.278423 0.021409 
0.964310 0.264022 0.019953 
0.967842 0.250867 0.018638 
0.970890 0.238890 0.017455 
0.973519 0.228019 0.016395 
0.975786 0.218181 0.015448 
0.977743 0.209297 0.014606 
0.979435 0.201285 0.013859 
0.980901 0.194061 0.013198 
0.982177 0.187537 0.012613 
0.983293 0.181630 0.012095 
0.984275 0.176259 0.011637 
0.985146 0.171350 0.011231 
0.985925 0.166837 0.010871 
0.986625 0.162665 0.010552 
0.987259 0.158790 0.010270 
0.987835 0.155185 0.010023 
0.988356 0.151842 0.009810 
0.988824 0.148778 0.009635 
0.989233 0.146040 0.009499 
0.989574 0.143717 0.009411 
0.989829 0.141955 0.009379 
0.989969 0.140974 0.009412 
0.989950 0.141097 0.009520 
0.989706 0.142789 0.009706 
0.989130 0.146708 0.009958 
0.988053 0.153773 0.010227 
0.986196 0.165253 0.010388 
0.983087 0.182857 0.010149 
0.977919 0.208797 0.008878 
0.969329 0.245710 0.005253 
0.955150 0.296103 -0.003328 
0.932484 0.360580 -0.021356 
0.899539 0.433469 -0.054168 
0.863430 0.494776 -0.098410 
0.654564 0.746116 0.121888 
0.692346 0.715430 0.093895 
0.735490 0.673635 0.072600 
0.774878 0.629334 0.059187 
0.808339 0.586537 0.050621 
0.836101 0.546755 0.044656 
0.859042 0.510333 0.040087 
0.878079 0.477134 0.036336 
0.893990 0.446861 0.033125 
0.907394 0.419187 0.030310 
0.918769 0.393814 0.027807 
0.928485 0.370490 0.025563 
0.936823 0.349012 0.023539 
0.944003 0.329223 0.021709 
0.950197 0.311004 0.020051 
0.955545 0.294262 0.018551 
0.960160 0.278920 0.017197 
0.964141 0.264911 0.015979 
0.967569 0.252167 0.014888 
0.970520 0.240619 0.013917 
0.973058 0.230190 0.013055 
0.975243 0.220796 0.012294 
0.977125 0.212347 0.011624 
0.978752 0.204752 0.011038 
0.980162 0.197917 0.010525 
0.981392 0.191749 0.010076 
0.982471 0.186162 0.009685 
0.983425 0.181076 0.009344 
0.984273 0.176421 0.009046 
0.985033 0.172142 0.008789 
0.985716 0.168195 0.008568 
0.986332 0.164559 0.008382 
0.986882 0.161235 0.008232 
0.987365 0.158254 0.008119 
0.987774 0.155687 0.008049 
0.988092 0.153656 0.008027 
0.988293 0.152356 0.008060 
0.988335 0.152074 0.008155 
0.988155 0.153231 0.008315 
0.987652 0.156429 0.008530 
0.986667 0.162515 0.008767 
0.984939 0.172668 0.008943 
0.982033 0.188500 0.008876 
0.977204 0.212144 0.008201 
0.969185 0.246255 0.006204 
0.955888 0.293728 0.001528 
0.934193 0.356673 -0.008281 
0.900546 0.433914 -0.027125 
0.854319 0.516370 -0.059173 
0.807494 0.581254 -0.100491 
0.635634 0.763015 0.117381 
0.673401 0.733781 0.089981 
0.717011 0.693634 0.069042 
0.757395 0.650565 0.055846 
0.792200 0.608414 0.047457 
0.821456 0.568748 0.041658 
0.845906 0.532030 0.037248 
0.866384 0.498243 0.033644 
0.883633 0.467181 0.030564 
0.898255 0.438590 0.027865 
0.910727 0.412223 0.025465 
0.921419 0.387870 0.023310 
0.930621 0.365361 0.021367 
0.938558 0.344563 0.019608 
0.945412 0.325379 0.018016 
0.951329 0.307730 0.016578 
0.956432 0.291555 0.015283 
0.960826 0.276792 0.014122 
0.964603 0.263380 0.013087 
0.967846 0.251248 0.012171 
0.970628 0.240318 0.011364 
0.973014 0.230499 0.010657 
0.975064 0.221696 0.010041 
0.976829 0.213810 0.009507 
0.978355 0.206738 0.009045 
0.979680 0.200381 0.008647 
0.980838 0.194647 0.008305 
0.981857 0.189452 0.008012 
0.982760 0.184724 0.007763 
0.983563 0.180406 0.007553 
0.984280 0.176459 0.007379 
0.984918 0.172870 0.007242 
0.985479 0.169650 0.007141 
0.985957 0.166851 0.007078 
0.986340 0.164572 0.007059 
0.986605 0.162974 0.007087 
0.986714 0.162310 0.007168 
0.986608 0.162946 0.007303 
0.986196 0.165414 0.007484 
0.985334 0.170463 0.007685 
0.983792 0.179142 0.007845 
0.981190 0.192885 0.007836 
0.976892 0.213604 0.007418 
0.969825 0.243724 0.006153 
0.958214 0.286034 0.003275 
0.939300 0.343089 -0.002530 
0.909389 0.415731 -0.013426 
0.865209 0.500351 -0.032603 
0.808337 0.585318 -0.063199 
0.754656 0.648261 -0.101252 
0.619488 0.776734 0.113657 
0.657296 0.748607 0.086894 
0.701264 0.709805 0.066383 
0.742379 0.667846 0.053435 
0.778198 0.626390 0.045209 
0.808627 0.586992 0.039537 
0.834303 0.550178 0.035237 
0.855994 0.516011 0.031729 
0.874396 0.484361 0.028734 
0.890090 0.455037 0.026107 
0.903540 0.427844 0.023769 
0.915115 0.402611 0.021667 
0.925102 0.379204 0.019770 
0.933731 0.357519 0.018052 
0.941188 0.337481 0.016498 
0.947623 0.319033 0.015097 
0.953168 0.302124 0.013837 
0.957935 0.286705 0.012713 
0.962023 0.272718 0.011716 
0.965523 0.260092 0.010838 
0.968516 0.248746 0.010070 
0.971076 0.238586 0.009404 
0.973266 0.229509 0.008829 
0.975146 0.221407 0.008335 
0.976764 0.214171 0.007914 
0.978165 0.207694 0.007556 
0.979383 0.201881 0.007254 
0.980450 0.196642 0.007001 
0.981390 0.191905 0.006791 
0.982220 0.187615 0.006620 
0.982954 0.183739 0.006487 
0.983596 0.180273 0.006389 
0.984147 0.177244 0.006329 
0.984597 0.174728 0.006307 
0.984927 0.172856 0.006329 
0.985105 0.171838 0.006395 
0.985078 0.171988 0.006507 
0.984765 0.173764 0.006658 
0.984040 0.177815 0.006827 
0.982705 0.185045 0.006967 
0.980439 0.196699 0.006982 
0.976716 0.214432 0.006700 
0.970664 0.240368 0.005821 
0.960856 0.277020 0.003858 
0.945046 0.326938 0.000039 
0.920028 0.391792 -0.006822 
0.882118 0.470664 -0.018514 
0.829179 0.557721 -0.037542 
0.765233 0.640327 -0.066330 
0.708305 0.698605 -0.101273 
0.605748 0.787943 0.110527 
0.643608 0.760692 0.084364 
0.687858 0.722994 0.064275 
0.729528 0.682004 0.051571 
0.766127 0.641216 0.043492 
0.797485 0.602146 0.037924 
0.824162 0.565349 0.033706 
0.846868 0.530940 0.030267 
0.866259 0.498846 0.027329 
0.882890 0.468928 0.024750 
0.897208 0.441037 0.022451 
0.909573 0.415045 0.020382 
0.920268 0.390850 0.018512 
0.929523 0.368380 0.016818 
0.937524 0.347585 0.015286 
0.944426 0.328429 0.013907 
0.950366 0.310876 0.012671 
0.955462 0.294888 0.011571 
0.959822 0.280410 0.010602 
0.963543 0.267375 0.009753 
0.966715 0.255695 0.009017 
0.969418 0.245272 0.008383 
0.971723 0.235994 0.007842 
0.973692 0.227747 0.007384 
0.975381 0.220414 0.006997 
0.976836 0.213883 0.006674 
0.978097 0.208052 0.006407 
0.979194 0.202831 0.006188 
0.980154 0.198148 0.006012 
0.980994 0.193951 0.005875 
0.981726 0.190215 0.005776 
0.982353 0.186947 0.005713 
0.982873 0.184197 0.005687 
0.983270 0.182065 0.005700 
0.983517 0.180722 0.005752 
0.983570 0.180430 0.005844 
0.983359 0.181576 0.005969 
0.982774 0.184711 0.006111 
0.981647 0.190605 0.006234 
0.979711 0.200317 0.006263 
0.976538 0.215258 0.006070 
0.971434 0.237248 0.005436 
0.963275 0.268485 0.004019 
0.950300 0.311334 0.001310 
0.929920 0.367747 -0.003410 
0.898833 0.438149 -0.011134 
0.853942 0.519848 -0.023258 
0.794691 0.605577 -0.041747 
0.727054 0.683141 -0.068635 
0.669510 0.735925 -0.100854 
0.594039 0.797170 0.107874 
0.631946 0.770635 0.082249 
0.676419 0.733856 0.062549 
0.718521 0.693700 0.050069 
0.755737 0.653520 0.042122 
0.787842 0.614787 0.036640 
0.815345 0.578063 0.032486 
0.838908 0.543494 0.029098 
0.859151 0.511051 0.026200 
0.876601 0.480636 0.023653 
0.891689 0.452143 0.021378 
0.904761 0.425481 0.019328 
0.916093 0.400585 0.017472 
0.925911 0.377412 0.015791 
0.934400 0.355940 0.014271 
0.941718 0.336155 0.012905 
0.948006 0.318037 0.011684 
0.953389 0.301558 0.010604 
0.957981 0.286669 0.009655 
0.961888 0.273300 0.008831 
0.965207 0.261361 0.008122 
0.968023 0.250747 0.007518 
0.970416 0.241339 0.007007 
0.972451 0.233014 0.006579 
0.974189 0.225647 0.006224 
0.975679 0.219123 0.005933 
0.976963 0.213334 0.005696 
0.978073 0.208189 0.005508 
0.979036 0.203619 0.005363 
0.979868 0.199576 0.005257 
0.980581 0.196048 0.005188 
0.981174 0.193055 0.005155 
0.981641 0.190670 0.005158 
0.981959 0.189025 0.005197 
0.982091 0.188333 0.005271 
0.981979 0.188915 0.005374 
0.981529 0.191234 0.005494 
0.980601 0.195936 0.005601 
0.978973 0.203913 0.005640 
0.976299 0.216355 0.005512 
0.972030 0.234804 0.005053 
0.965290 0.261149 0.004009 
0.954717 0.297509 0.002013 
0.938286 0.345857 -0.001424 
0.913274 0.407287 -0.006920 
0.876653 0.480881 -0.015244 
0.826308 0.562550 -0.027448 
0.763234 0.644543 -0.045140 
0.694533 0.716026 -0.070222 
0.637972 0.763516 -0.100175 
0.584033 0.804830 0.105615 
0.621975 0.778892 0.080465 
0.666625 0.742884 0.061111 
0.709073 0.703443 0.048833 
0.746786 0.663800 0.041001 
0.779507 0.625382 0.035591 
0.807703 0.588748 0.031487 
0.831999 0.554063 0.028136 
0.852983 0.521327 0.025266 
0.871156 0.490479 0.022739 
0.886930 0.461450 0.020477 
0.900636 0.434183 0.018436 
0.912541 0.408649 0.016585 
0.922864 0.384838 0.014908 
0.931788 0.362756 0.013393 
0.939474 0.342409 0.012034 
0.946065 0.323796 0.010824 
0.951693 0.306898 0.009757 
0.956479 0.291668 0.008827 
0.960537 0.278038 0.008025 
0.963970 0.265911 0.007341 
0.966871 0.255175 0.006763 
0.969325 0.245702 0.006280 
0.971404 0.237361 0.005882 
0.973170 0.230021 0.005556 
0.974676 0.223560 0.005294 
0.975965 0.217869 0.005086 
0.977071 0.212857 0.004926 
0.978020 0.208457 0.004809 
0.978828 0.204630 0.004731 
0.979503 0.201375 0.004688 
0.980043 0.198732 0.004681 
0.980433 0.196799 0.004707 
0.980644 0.195743 0.004764 
0.980627 0.195824 0.004849 
0.980305 0.197425 0.004950 
0.979561 0.201085 0.005044 
0.978212 0.207546 0.005089 
0.975979 0.217806 0.005009 
0.972427 0.233160 0.004680 
0.966876 0.255218 0.003909 
0.958276 0.285835 0.002420 
0.945065 0.326882 -0.000151 
0.925078 0.379753 -0.004242 
0.895690 0.444560 -0.010336 
0.854445 0.519195 -0.018983 
0.800340 0.598745 -0.030981 
0.735563 0.675771 -0.047755 
0.667548 0.741152 -0.071226 
0.612777 0.783986 -0.099355 
0.575450 0.811238 0.103685 
0.613416 0.785804 0.078950 
0.658208 0.750450 0.059901 
0.700938 0.711619 0.047801 
0.739065 0.672442 0.040070 
0.772305 0.634302 0.034720 
0.801096 0.597750 0.030656 
0.826030 0.562962 0.027332 
0.847668 0.529962 0.024479 
0.866486 0.498718 0.021962 
0.882876 0.469192 0.019705 
0.897154 0.441365 0.017663 
0.909574 0.415240 0.015810 
0.920350 0.390842 0.014130 
0.929660 0.368202 0.012615 
0.937667 0.347352 0.011258 
0.944518 0.328307 0.010055 
0.950349 0.311055 0.009000 
0.955292 0.295553 0.008087 
0.959466 0.281729 0.007305 
0.962983 0.269482 0.006644 
0.965942 0.258689 0.006092 
0.968432 0.249214 0.005636 
0.970531 0.240917 0.005266 
0.972305 0.233661 0.004968 
0.973809 0.227319 0.004733 
0.975086 0.221779 0.004552 
0.976172 0.216953 0.004419 
0.977091 0.212778 0.004327 
0.977858 0.209227 0.004273 
0.978477 0.206311 0.004254 
0.978942 0.204093 0.004267 
0.979232 0.202697 0.004310 
0.979307 0.202331 0.004378 
0.979106 0.203303 0.004462 
0.978529 0.206060 0.004544 
0.977429 0.211215 0.004592 
0.975580 0.219597 0.004548 
0.972637 0.232292 0.004316 
0.968069 0.250656 0.003750 
0.961070 0.276294 0.002638 
0.950438 0.310914 0.000698 
0.934482 0.356001 -0.002409 
0.911043 0.412252 -0.007037 
0.877802 0.478832 -0.013530 
0.833042 0.552762 -0.022253 
0.776760 0.628887 -0.033849 
0.711858 0.700563 -0.049690 
0.645537 0.760347 -0.071791 
0.592848 0.799270 -0.098482 
0.568057 0.816640 0.102033 
0.606039 0.791635 0.077660 
0.650947 0.756836 0.058878 
0.693916 0.718524 0.046934 
0.732398 0.679743 0.039290 
0.766089 0.641835 0.033991 
0.795402 0.605342 0.029957 
0.820903 0.570446 0.026650 
0.843127 0.537188 0.023807 
0.862528 0.505561 0.021291 
0.879477 0.475560 0.019030 
0.894274 0.447198 0.016980 
0.907160 0.420515 0.015118 
0.918339 0.395566 0.013431 
0.927990 0.372415 0.011910 
0.936273 0.351115 0.010553 
0.943341 0.331694 0.009355 
0.949337 0.314150 0.008310 
0.954399 0.298442 0.007412 
0.958656 0.284491 0.006650 
0.962225 0.272188 0.006012 
0.965215 0.261401 0.005486 
0.967718 0.251984 0.005057 
0.969817 0.243789 0.004713 
0.971580 0.236671 0.004442 
0.973063 0.230499 0.004234 
0.974313 0.225163 0.004079 
0.975362 0.220575 0.003970 
0.976235 0.216680 0.003901 
0.976944 0.213462 0.003868 
0.977489 0.210950 0.003868 
0.977859 0.209228 0.003897 
0.978024 0.208455 0.003950 
0.977934 0.208876 0.004020 
0.977509 0.210852 0.004091 
0.976630 0.214888 0.004139 
0.975113 0.221671 0.004120 
0.972684 0.232100 0.003961 
0.968928 0.247318 0.003549 
0.963221 0.268696 0.002721 
0.954642 0.297754 0.001256 
0.941880 0.335949 -0.001117 
0.923204 0.384282 -0.004687 
0.896603 0.442729 -0.009716 
0.860213 0.509670 -0.016414 
0.813065 0.581635 -0.025018 
0.755913 0.653675 -0.036105 
0.691934 0.720152 -0.051072 
0.627781 0.775049 -0.072044 
0.577168 0.810770 -0.097617 
0.561665 0.821224 0.100614 
0.599657 0.796587 0.076556 
0.644666 0.762261 0.058009 
0.687844 0.724387 0.046202 
0.726639 0.685933 0.038633 
0.760732 0.648207 0.033375 
0.790515 0.611738 0.029364 
0.816531 0.576712 0.026067 
0.839291 0.543185 0.023225 
0.859228 0.511174 0.020703 
0.876690 0.480703 0.018430 
0.891960 0.451819 0.016366 
0.905266 0.424597 0.014489 
0.916806 0.399128 0.012789 
0.926752 0.375504 0.011260 
0.935269 0.353799 0.009900 
0.942512 0.334059 0.008706 
0.948634 0.316284 0.007671 
0.953779 0.300432 0.006789 
0.958085 0.286419 0.006047 
0.961679 0.274124 0.005433 
0.964673 0.263405 0.004932 
0.967166 0.254105 0.004530 
0.969244 0.246067 0.004213 
0.970977 0.239139 0.003968 
0.972424 0.233189 0.003785 
0.973630 0.228105 0.003653 
0.974627 0.223805 0.003567 
0.975439 0.220243 0.003519 
0.976073 0.217415 0.003504 
0.976527 0.215369 0.003519 
0.976780 0.214215 0.003558 
0.976795 0.214145 0.003614 
0.976509 0.215445 0.003676 
0.975824 0.218526 0.003722 
0.974593 0.223951 0.003720 
0.972598 0.232465 0.003613 
0.969512 0.245021 0.003317 
0.964851 0.262784 0.002703 
0.957905 0.287082 0.001600 
0.947661 0.319277 -0.000211 
0.932756 0.360496 -0.002974 
0.911514 0.411211 -0.006916 
0.882185 0.470745 -0.012204 
0.843422 0.536917 -0.018942 
0.794907 0.606117 -0.027294 
0.737860 0.673892 -0.037834 
0.675412 0.735603 -0.052024 
0.613555 0.786355 -0.072088 
0.564866 0.819486 -0.096800 
0.556118 0.825139 0.099393 
0.594119 0.800816 0.075610 
0.639219 0.766890 0.057268 
0.682588 0.729381 0.045580 
0.721669 0.691190 0.038076 
0.756133 0.653593 0.032853 
0.786351 0.617106 0.028857 
0.812845 0.581919 0.025563 
0.836105 0.548099 0.022715 
0.856539 0.515687 0.020179 
0.874477 0.484737 0.017888 
0.890182 0.455332 0.015803 
0.903869 0.427583 0.013907 
0.915727 0.401616 0.012190 
0.925927 0.377553 0.010650 
0.934634 0.355491 0.009286 
0.942011 0.335484 0.008095 
0.948219 0.317538 0.007071 
0.953412 0.301607 0.006205 
0.957736 0.287595 0.005485 
0.961325 0.275372 0.004895 
0.964298 0.264781 0.004420 
0.966759 0.255656 0.004045 
0.968797 0.247828 0.003754 
0.970483 0.241142 0.003535 
0.971878 0.235462 0.003376 
0.973025 0.230678 0.003267 
0.973956 0.226714 0.003201 
0.974691 0.223535 0.003171 
0.975234 0.221151 0.003171 
0.975578 0.219631 0.003197 
0.975694 0.219114 0.003240 
0.975534 0.219822 0.003292 
0.975022 0.222085 0.003335 
0.974038 0.226359 0.003344 
0.972409 0.233259 0.003275 
0.969877 0.243575 0.003064 
0.966065 0.258287 0.002612 
0.960422 0.278544 0.001784 
0.952167 0.305579 0.000405 
0.940232 0.340531 -0.001729 
0.923258 0.384150 -0.004823 
0.899711 0.436392 -0.009037 
0.868173 0.496051 -0.014455 
0.827796 0.560632 -0.021104 
0.778750 0.626658 -0.029126 
0.722470 0.690294 -0.039131 
0.661844 0.747790 -0.052658 
0.602211 0.795084 -0.072003 
0.555230 0.826132 -0.096055 
0.551290 0.828498 0.098339 
0.589301 0.804444 0.074796 
0.634489 0.770854 0.056634 
0.678039 0.733644 0.045051 
0.717393 0.695653 0.037603 
0.752207 0.658129 0.032406 
0.782838 0.621576 0.028419 
0.809787 0.586186 0.025122 
0.833521 0.552039 0.022260 
0.854426 0.519199 0.019705 
0.872809 0.487751 0.017388 
0.888915 0.457817 0.015277 
0.902946 0.429546 0.013356 
0.915082 0.403101 0.011619 
0.925493 0.378632 0.010067 
0.934348 0.356256 0.008699 
0.941819 0.336038 0.007512 
0.948074 0.317983 0.006500 
0.953280 0.302037 0.005652 
0.957590 0.288092 0.004954 
0.961147 0.276004 0.004390 
0.964075 0.265601 0.003942 
0.966483 0.256705 0.003594 
0.968462 0.249139 0.003330 
0.970086 0.242743 0.003136 
0.971412 0.237379 0.003000 
0.972486 0.232941 0.002912 
0.973337 0.229360 0.002864 
0.973981 0.226612 0.002850 
0.974418 0.224724 0.002861 
0.974633 0.223789 0.002892 
0.974592 0.223970 0.002934 
0.974233 0.225526 0.002973 
0.973463 0.228824 0.002988 
0.972145 0.234364 0.002947 
0.970073 0.242798 0.002798 
0.966951 0.254949 0.002467 
0.962354 0.271794 0.001848 
0.955674 0.294427 0.000801 
0.946079 0.323936 -0.000842 
0.932484 0.361197 -0.003263 
0.913597 0.406568 -0.006619 
0.888083 0.459551 -0.011007 
0.854878 0.518568 -0.016443 
0.813562 0.581027 -0.022916 
0.764621 0.643755 -0.030574 
0.709510 0.703555 -0.040087 
0.650783 0.757407 -0.053061 
0.593198 0.801845 -0.071846 
0.547696 0.831221 -0.095397 
0.547078 0.831393 0.097428 
0.585104 0.807566 0.074096 
0.630382 0.774256 0.056092 
0.674112 0.737281 0.044600 
0.713732 0.699430 0.037199 
0.748889 0.661921 0.032023 
0.779922 0.625248 0.028038 
0.807313 0.589605 0.024731 
0.831505 0.555087 0.021849 
0.852861 0.521782 0.019266 
0.871665 0.489810 0.016918 
0.888141 0.459333 0.014775 
0.902480 0.430541 0.012825 
0.914853 0.403635 0.011067 
0.925433 0.378793 0.009501 
0.934393 0.356150 0.008129 
0.941916 0.335778 0.006948 
0.948180 0.317678 0.005950 
0.953363 0.301783 0.005122 
0.957629 0.287972 0.004450 
0.961126 0.276081 0.003913 
0.963987 0.265925 0.003494 
0.966323 0.257313 0.003173 
0.968226 0.250060 0.002936 
0.969771 0.244000 0.002766 
0.971017 0.238997 0.002652 
0.972005 0.234948 0.002583 
0.972762 0.231793 0.002551 
0.973300 0.229522 0.002548 
0.973616 0.228180 0.002567 
0.973686 0.227881 0.002599 
0.973466 0.228818 0.002633 
0.972883 0.231282 0.002651 
0.971829 0.235674 0.002628 
0.970140 0.242531 0.002526 
0.967585 0.252534 0.002285 
0.963830 0.266511 0.001824 
0.958404 0.285414 0.001031 
0.950657 0.310243 -0.000230 
0.939732 0.341906 -0.002116 
0.924566 0.380991 -0.004777 
0.903981 0.427491 -0.008325 
0.876878 0.480543 -0.012798 
0.842525 0.538351 -0.018168 
0.800827 0.598398 -0.024409 
0.752436 0.657902 -0.031703 
0.698700 0.714252 -0.040779 
0.641820 0.765000 -0.053304 
0.586065 0.807090 -0.071657 
0.541826 0.835124 -0.094828 
0.543399 0.833894 0.096639 
0.581447 0.810258 0.073492 
0.626822 0.777174 0.055626 
0.670737 0.740376 0.044215 
0.710627 0.702603 0.036853 
0.746127 0.665049 0.031691 
0.777561 0.628197 0.027703 
0.805390 0.592244 0.024379 
0.830032 0.557302 0.021469 
0.851825 0.523488 0.018852 
0.871027 0.490959 0.016466 
0.887846 0.459920 0.014286 
0.902456 0.430606 0.012305 
0.915027 0.403256 0.010522 
0.925731 0.378077 0.008943 
0.934753 0.355219 0.007569 
0.942284 0.334754 0.006396 
0.948518 0.316676 0.005415 
0.953644 0.300901 0.004612 
0.957835 0.287290 0.003966 
0.961249 0.275660 0.003459 
0.964021 0.265810 0.003069 
0.966265 0.257534 0.002777 
0.968077 0.250642 0.002565 
0.969529 0.244963 0.002419 
0.970681 0.240362 0.002326 
0.971570 0.236742 0.002274 
0.972221 0.234055 0.002255 
0.972641 0.232303 0.002261 
0.972820 0.231551 0.002283 
0.972728 0.231937 0.002311 
0.972311 0.233680 0.002330 
0.971482 0.237100 0.002320 
0.970116 0.242632 0.002251 
0.968027 0.250836 0.002077 
0.964955 0.262408 0.001734 
0.960533 0.278165 0.001136 
0.954252 0.299003 0.000171 
0.945438 0.325801 -0.001293 
0.933232 0.359259 -0.003392 
0.916631 0.399685 -0.006243 
0.894605 0.446748 -0.009912 
0.866295 0.499326 -0.014397 
0.831253 0.555548 -0.019639 
0.789606 0.613079 -0.025623 
0.742050 0.669552 -0.032573 
0.689760 0.722861 -0.041274 
0.634602 0.770989 -0.053441 
0.580449 0.811154 -0.071463 
0.537278 0.838111 -0.094350 
0.540185 0.836057 0.095958 
0.578265 0.812579 0.072972 
0.623749 0.779671 0.055228 
0.667861 0.742991 0.043886 
0.708031 0.705235 0.036556 
0.743883 0.667571 0.031401 
0.775726 0.630475 0.027403 
0.803995 0.594149 0.024055 
0.829085 0.558724 0.021111 
0.851304 0.524348 0.018451 
0.870887 0.491223 0.016022 
0.888018 0.459601 0.013801 
0.902863 0.429766 0.011784 
0.915588 0.401994 0.009978 
0.926371 0.376519 0.008387 
0.935408 0.353500 0.007014 
0.942905 0.333009 0.005853 
0.949071 0.315024 0.004892 
0.954106 0.299442 0.004115 
0.958194 0.286099 0.003500 
0.961499 0.274793 0.003024 
0.964161 0.265305 0.002664 
0.966297 0.257418 0.002401 
0.968002 0.250931 0.002215 
0.969350 0.245674 0.002092 
0.970395 0.241515 0.002017 
0.971174 0.238363 0.001981 
0.971707 0.236180 0.001973 
0.971997 0.234986 0.001984 
0.972026 0.234865 0.002005 
0.971757 0.235976 0.002023 
0.971124 0.238566 0.002021 
0.970029 0.242980 0.001976 
0.968327 0.249678 0.001851 
0.965813 0.259236 0.001598 
0.962198 0.272350 0.001148 
0.957086 0.289804 0.000411 
0.949945 0.312415 -0.000721 
0.940090 0.340917 -0.002368 
0.926689 0.375800 -0.004645 
0.908826 0.417105 -0.007635 
0.885633 0.464246 -0.011366 
0.856476 0.515944 -0.015802 
0.821130 0.570359 -0.020879 
0.779849 0.625402 -0.026602 
0.733289 0.679104 -0.033238 
0.682425 0.729769 -0.041626 
0.628830 0.775699 -0.053509 
0.576065 0.814290 -0.071282 
0.533791 0.840380 -0.093957 
0.537384 0.837928 0.095369 
0.575507 0.814575 0.072525 
0.621116 0.781794 0.054888 
0.665441 0.745176 0.043604 
0.705909 0.707372 0.036300 
0.742131 0.669531 0.031146 
0.774396 0.632119 0.027131 
0.803117 0.595348 0.023751 
0.828657 0.559371 0.020764 
0.851295 0.524376 0.018056 
0.871238 0.490613 0.015576 
0.888653 0.458388 0.013309 
0.903693 0.428034 0.011256 
0.916525 0.399867 0.009426 
0.927338 0.374143 0.007826 
0.936342 0.351029 0.006457 
0.943762 0.330584 0.005312 
0.949819 0.312768 0.004377 
0.954730 0.297452 0.003631 
0.958687 0.284447 0.003048 
0.961860 0.273528 0.002605 
0.964395 0.264458 0.002278 
0.966407 0.257007 0.002043 
0.967993 0.250969 0.001883 
0.969224 0.246173 0.001781 
0.970152 0.242490 0.001724 
0.970811 0.239840 0.001700 
0.971216 0.238196 0.001700 
0.971363 0.237594 0.001713 
0.971230 0.238138 0.001729 
0.970769 0.240009 0.001732 
0.969905 0.243477 0.001703 
0.968525 0.248909 0.001615 
0.966468 0.256782 0.001429 
0.963508 0.267678 0.001091 
0.959333 0.282277 0.000529 
0.953525 0.301313 -0.000344 
0.945540 0.325503 -0.001631 
0.934697 0.355428 -0.003439 
0.920216 0.391368 -0.005856 
0.901283 0.433138 -0.008936 
0.877197 0.479964 -0.012676 
0.847514 0.530500 -0.017023 
0.812168 0.583012 -0.021915 
0.771464 0.635684 -0.027385 
0.725970 0.686898 -0.033746 
0.676460 0.735288 -0.041874 
0.624258 0.779381 -0.053536 
0.572684 0.816685 -0.071125 
0.531163 0.842078 -0.093646 
0.534953 0.839539 0.094863 
0.573133 0.816280 0.072143 
0.618887 0.783580 0.054598 
0.663449 0.746964 0.043365 
0.704239 0.709046 0.036078 
0.740855 0.670953 0.030918 
0.773565 0.633147 0.026878 
0.802752 0.595852 0.023458 
0.828748 0.559249 0.020420 
0.851798 0.523572 0.017655 
0.872081 0.489127 0.015119 
0.889744 0.456280 0.012802 
0.904935 0.425416 0.010713 
0.917824 0.396888 0.008861 
0.928615 0.370973 0.007255 
0.937537 0.347835 0.005896 
0.944833 0.327517 0.004773 
0.950745 0.309950 0.003868 
0.955499 0.294978 0.003156 
0.959299 0.282381 0.002610 
0.962320 0.271910 0.002202 
0.964709 0.263311 0.001907 
0.966585 0.256342 0.001702 
0.968040 0.250793 0.001566 
0.969143 0.246493 0.001484 
0.969945 0.243319 0.001442 
0.970474 0.241201 0.001429 
0.970741 0.240125 0.001434 
0.970736 0.240145 0.001445 
0.970429 0.241382 0.001450 
0.969765 0.244038 0.001433 
0.968656 0.248404 0.001373 
0.966976 0.254864 0.001237 
0.964549 0.263903 0.000983 
0.961129 0.276099 0.000557 
0.956388 0.292099 -0.000115 
0.949892 0.312575 -0.001118 
0.941095 0.338132 -0.002546 
0.929342 0.369192 -0.004487 
0.913914 0.405847 -0.007008 
0.894114 0.447725 -0.010136 
0.869389 0.493934 -0.013845 
0.839452 0.543133 -0.018074 
0.804335 0.593740 -0.022775 
0.764339 0.644206 -0.028011 
0.719919 0.693219 -0.034133 
0.671661 0.739664 -0.042051 
0.620687 0.782228 -0.053544 
0.570130 0.818481 -0.070998 
0.529240 0.843315 -0.093410 
0.532860 0.840918 0.094431 
0.571114 0.817723 0.071818 
0.617037 0.785055 0.054353 
0.661865 0.748380 0.043161 
0.703009 0.710275 0.035885 
0.740051 0.671850 0.030711 
0.773232 0.633563 0.026637 
0.802906 0.595655 0.023168 
0.829366 0.558346 0.020069 
0.852820 0.521920 0.017240 
0.873419 0.486750 0.014642 
0.891291 0.453266 0.012273 
0.906581 0.421910 0.010147 
0.919472 0.393068 0.008277 
0.930185 0.367030 0.006672 
0.938973 0.343949 0.005328 
0.946101 0.323844 0.004233 
0.951828 0.306613 0.003363 
0.956395 0.292063 0.002690 
0.960014 0.279945 0.002183 
0.962864 0.269982 0.001812 
0.965093 0.261904 0.001551 
0.966819 0.255459 0.001374 
0.968133 0.250435 0.001262 
0.969101 0.246663 0.001199 
0.969768 0.244026 0.001170 
0.970159 0.242465 0.001164 
0.970280 0.241983 0.001170 
0.970114 0.242647 0.001176 
0.969624 0.244598 0.001167 
0.968745 0.248057 0.001126 
0.967379 0.253330 0.001028 
0.965389 0.260812 0.000839 
0.962582 0.270991 0.000516 
0.958698 0.284427 -0.000001 
0.953394 0.301726 -0.000780 
0.946233 0.323481 -0.001904 
0.936675 0.350182 -0.003453 
0.924105 0.382099 -0.005501 
0.907877 0.419159 -0.008091 
0.887406 0.460852 -0.011229 
0.862271 0.506228 -0.014877 
0.832300 0.554000 -0.018973 
0.797574 0.602763 -0.023487 
0.758355 0.651218 -0.028512 
0.714975 0.698302 -0.034431 
0.667856 0.743095 -0.042180 