# OOMMF: rectangular mesh v0.99 
# Segment count: 1 
# Begin: Segment 
# Begin: Header 
# Title: model.omf 
# Desc: 
# meshunit: unknown 
# xbase: 0 
# ybase: 0 
# zbase: 0 
# xstepsize: 1
# ystepsize: 1 
# zstepsize: 1 
# xnodes: 50 
# ynodes: 50 
# znodes: 4 
# xmin: -0.5 
# ymin: -0.5 
# zmin: -0.5 
# xmax: 49.500000 
# ymax: 49.500000 
# zmax: 3.500000 
# valueunit: Ms 
# valuemultiplier: 1 
# ValueRangeMaxMag:  1. 
# ValueRangeMinMag:  1e-8 
# End: Header 
# Begin: data text 
0.753235 0.639200 0.155115 
0.790434 0.597197 0.136269 
0.826693 0.549857 0.119315 
0.856836 0.504577 0.105988 
0.880881 0.463617 0.095432 
0.899919 0.427338 0.086766 
0.915075 0.395386 0.079424 
0.927268 0.367197 0.073071 
0.937198 0.342203 0.067500 
0.945383 0.319901 0.062569 
0.952205 0.299871 0.058172 
0.957947 0.281775 0.054228 
0.962820 0.265349 0.050673 
0.966983 0.250383 0.047456 
0.970557 0.236717 0.044536 
0.973637 0.224226 0.041883 
0.976296 0.212811 0.039470 
0.978596 0.202388 0.037277 
0.980587 0.192886 0.035287 
0.982311 0.184238 0.033483 
0.983807 0.176381 0.031850 
0.985105 0.169250 0.030375 
0.986235 0.162781 0.029042 
0.987221 0.156909 0.027838 
0.988085 0.151569 0.026750 
0.988846 0.146699 0.025765 
0.989520 0.142237 0.024869 
0.990122 0.138126 0.024052 
0.990665 0.134316 0.023304 
0.991156 0.130758 0.022615 
0.991606 0.127416 0.021977 
0.992019 0.124258 0.021387 
0.992401 0.121266 0.020839 
0.992754 0.118433 0.020334 
0.993077 0.115771 0.019875 
0.993369 0.113309 0.019467 
0.993625 0.111105 0.019121 
0.993835 0.109254 0.018853 
0.993987 0.107895 0.018681 
0.994060 0.107226 0.018629 
0.994027 0.107521 0.018714 
0.993846 0.109144 0.018941 
0.993459 0.112551 0.019262 
0.992789 0.118279 0.019507 
0.991736 0.126849 0.019212 
0.990207 0.138535 0.017281 
0.988184 0.152848 0.011365 
0.985851 0.167600 -0.002904 
0.983554 0.177864 -0.031406 
0.981344 0.177862 -0.073003 
0.728369 0.669831 0.144241 
0.766854 0.630660 0.119174 
0.806309 0.582996 0.099903 
0.839450 0.536484 0.086657 
0.865979 0.494101 0.077100 
0.887056 0.456375 0.069671 
0.903904 0.422989 0.063547 
0.917520 0.393391 0.058315 
0.928657 0.367024 0.053752 
0.937875 0.343393 0.049721 
0.945586 0.322085 0.046131 
0.952097 0.302769 0.042911 
0.957638 0.285182 0.040008 
0.962381 0.269120 0.037382 
0.966459 0.254426 0.034999 
0.969975 0.240977 0.032835 
0.973013 0.228676 0.030870 
0.975640 0.217440 0.029086 
0.977913 0.207198 0.027469 
0.979881 0.197881 0.026007 
0.981585 0.189423 0.024687 
0.983063 0.181755 0.023498 
0.984347 0.174808 0.022428 
0.985466 0.168511 0.021465 
0.986445 0.162794 0.020599 
0.987306 0.157589 0.019818 
0.988068 0.152828 0.019112 
0.988747 0.148450 0.018471 
0.989358 0.144398 0.017888 
0.989911 0.140622 0.017355 
0.990416 0.137083 0.016866 
0.990879 0.133750 0.016417 
0.991305 0.130603 0.016006 
0.991697 0.127642 0.015633 
0.992053 0.124884 0.015301 
0.992371 0.122371 0.015017 
0.992642 0.120179 0.014789 
0.992855 0.118428 0.014631 
0.992990 0.117297 0.014559 
0.993020 0.117043 0.014590 
0.992902 0.118022 0.014736 
0.992573 0.120721 0.014991 
0.991940 0.125784 0.015293 
0.990858 0.134024 0.015457 
0.989112 0.146398 0.014995 
0.986398 0.163880 0.012769 
0.982314 0.187135 0.006306 
0.976387 0.215837 -0.009097 
0.968072 0.247457 -0.040014 
0.957664 0.274940 -0.085372 
0.701524 0.699788 0.134765 
0.739760 0.664309 0.106998 
0.781187 0.618329 0.086116 
0.817135 0.571850 0.072652 
0.846453 0.528649 0.063618 
0.870027 0.489700 0.056981 
0.889043 0.454897 0.051692 
0.904524 0.423797 0.047250 
0.917267 0.395900 0.043405 
0.927871 0.370747 0.040020 
0.936783 0.347950 0.037008 
0.944335 0.327191 0.034308 
0.950781 0.308221 0.031874 
0.956309 0.290847 0.029672 
0.961070 0.274917 0.027676 
0.965177 0.260316 0.025864 
0.968726 0.246950 0.024221 
0.971792 0.234740 0.022734 
0.974443 0.223614 0.021390 
0.976734 0.213503 0.020180 
0.978715 0.204336 0.019093 
0.980428 0.196040 0.018118 
0.981914 0.188540 0.017247 
0.983205 0.181757 0.016468 
0.984333 0.175615 0.015773 
0.985321 0.170036 0.015151 
0.986194 0.164947 0.014594 
0.986971 0.160280 0.014094 
0.987667 0.155973 0.013643 
0.988296 0.151974 0.013237 
0.988868 0.148240 0.012869 
0.989390 0.144741 0.012538 
0.989868 0.141462 0.012243 
0.990303 0.138410 0.011983 
0.990692 0.135613 0.011764 
0.991030 0.133135 0.011590 
0.991305 0.131080 0.011472 
0.991499 0.129613 0.011421 
0.991582 0.128976 0.011450 
0.991510 0.129516 0.011570 
0.991216 0.131724 0.011785 
0.990597 0.136281 0.012070 
0.989484 0.144117 0.012342 
0.987605 0.156470 0.012371 
0.984513 0.174929 0.011611 
0.979470 0.201395 0.008827 
0.971315 0.237793 0.001425 
0.958381 0.285076 -0.015387 
0.939081 0.340339 -0.047909 
0.916182 0.389611 -0.093885 
0.676559 0.725266 0.127505 
0.714479 0.692590 0.099193 
0.756969 0.648803 0.077794 
0.794950 0.603261 0.064264 
0.826615 0.560024 0.055502 
0.852486 0.520422 0.049290 
0.873603 0.484604 0.044464 
0.890955 0.452284 0.040467 
0.905345 0.423058 0.037031 
0.917392 0.396529 0.034014 
0.927565 0.372346 0.031332 
0.936220 0.350223 0.028927 
0.943626 0.329929 0.026760 
0.949993 0.311286 0.024799 
0.955480 0.294157 0.023022 
0.960217 0.278434 0.021412 
0.964307 0.264033 0.019955 
0.967839 0.250878 0.018640 
0.970887 0.238900 0.017457 
0.973517 0.228028 0.016397 
0.975784 0.218188 0.015450 
0.977742 0.209303 0.014608 
0.979434 0.201290 0.013860 
0.980900 0.194064 0.013198 
0.982176 0.187539 0.012613 
0.983292 0.181630 0.012095 
0.984275 0.176258 0.011637 
0.985146 0.171349 0.011231 
0.985925 0.166835 0.010870 
0.986625 0.162662 0.010551 
0.987259 0.158787 0.010268 
0.987835 0.155182 0.010021 
0.988356 0.151840 0.009809 
0.988824 0.148777 0.009633 
0.989233 0.146039 0.009499 
0.989574 0.143718 0.009411 
0.989828 0.141957 0.009379 
0.989968 0.140977 0.009412 
0.989949 0.141102 0.009521 
0.989705 0.142796 0.009707 
0.989128 0.146717 0.009959 
0.988051 0.153784 0.010229 
0.986194 0.165267 0.010390 
0.983084 0.182873 0.010152 
0.977915 0.208816 0.008882 
0.969324 0.245732 0.005259 
0.955142 0.296129 -0.003319 
0.932472 0.360611 -0.021343 
0.899523 0.433504 -0.054149 
0.863412 0.494814 -0.098386 
0.654565 0.746115 0.121888 
0.692347 0.715430 0.093895 
0.735491 0.673634 0.072599 
0.774878 0.629333 0.059186 
0.808339 0.586536 0.050621 
0.836101 0.546755 0.044655 
0.859042 0.510334 0.040087 
0.878078 0.477137 0.036337 
0.893988 0.446865 0.033126 
0.907391 0.419192 0.030311 
0.918767 0.393821 0.027809 
0.928481 0.370498 0.025565 
0.936819 0.349021 0.023542 
0.943999 0.329234 0.021711 
0.950193 0.311016 0.020054 
0.955541 0.294274 0.018554 
0.960157 0.278932 0.017200 
0.964137 0.264923 0.015982 
0.967566 0.252178 0.014891 
0.970517 0.240629 0.013919 
0.973056 0.230198 0.013057 
0.975241 0.220803 0.012295 
0.977124 0.212353 0.011625 
0.978751 0.204756 0.011038 
0.980162 0.197919 0.010525 
0.981392 0.191749 0.010076 
0.982472 0.186161 0.009684 
0.983425 0.181074 0.009343 
0.984274 0.176419 0.009045 
0.985034 0.172139 0.008788 
0.985717 0.168192 0.008567 
0.986332 0.164556 0.008381 
0.986882 0.161233 0.008231 
0.987365 0.158252 0.008118 
0.987774 0.155686 0.008048 
0.988092 0.153657 0.008026 
0.988293 0.152358 0.008060 
0.988335 0.152078 0.008155 
0.988154 0.153237 0.008315 
0.987651 0.156438 0.008531 
0.986665 0.162526 0.008769 
0.984937 0.172681 0.008945 
0.982030 0.188516 0.008879 
0.977200 0.212162 0.008205 
0.969180 0.246277 0.006209 
0.955880 0.293753 0.001534 
0.934182 0.356702 -0.008273 
0.900531 0.433945 -0.027113 
0.854300 0.516403 -0.059156 
0.807471 0.581288 -0.100470 
0.635635 0.763014 0.117381 
0.673402 0.733780 0.089980 
0.717012 0.693633 0.069042 
0.757395 0.650564 0.055846 
0.792200 0.608414 0.047457 
0.821456 0.568748 0.041658 
0.845905 0.532032 0.037248 
0.866383 0.498246 0.033645 
0.883631 0.467185 0.030565 
0.898252 0.438595 0.027867 
0.910724 0.412231 0.025467 
0.921415 0.387879 0.023313 
0.930617 0.365371 0.021369 
0.938554 0.344575 0.019611 
0.945408 0.325391 0.018019 
0.951325 0.307744 0.016581 
0.956428 0.291568 0.015286 
0.960822 0.276805 0.014125 
0.964600 0.263392 0.013090 
0.967843 0.251259 0.012173 
0.970626 0.240327 0.011366 
0.973012 0.230506 0.010658 
0.975063 0.221702 0.010042 
0.976828 0.213813 0.009507 
0.978354 0.206739 0.009045 
0.979680 0.200381 0.008646 
0.980838 0.194646 0.008304 
0.981858 0.189450 0.008011 
0.982760 0.184721 0.007761 
0.983564 0.180402 0.007551 
0.984281 0.176456 0.007378 
0.984919 0.172866 0.007240 
0.985479 0.169647 0.007139 
0.985957 0.166849 0.007077 
0.986340 0.164571 0.007058 
0.986605 0.162976 0.007087 
0.986713 0.162313 0.007168 
0.986607 0.162951 0.007303 
0.986195 0.165421 0.007485 
0.985332 0.170473 0.007686 
0.983790 0.179154 0.007847 
0.981187 0.192900 0.007839 
0.976888 0.213622 0.007421 
0.969820 0.243745 0.006157 
0.958207 0.286058 0.003280 
0.939289 0.343117 -0.002524 
0.909375 0.415761 -0.013418 
0.865191 0.500382 -0.032591 
0.808316 0.585349 -0.063183 
0.754632 0.648292 -0.101233 
0.619489 0.776734 0.113657 
0.657297 0.748606 0.086893 
0.701264 0.709804 0.066383 
0.742379 0.667846 0.053435 
0.778197 0.626390 0.045208 
0.808626 0.586993 0.039537 
0.834302 0.550180 0.035237 
0.855992 0.516015 0.031730 
0.874393 0.484366 0.028735 
0.890086 0.455044 0.026109 
0.903536 0.427852 0.023771 
0.915110 0.402622 0.021670 
0.925097 0.379216 0.019773 
0.933726 0.357533 0.018055 
0.941182 0.337496 0.016502 
0.947618 0.319048 0.015100 
0.953163 0.302139 0.013841 
0.957930 0.286719 0.012716 
0.962019 0.272730 0.011719 
0.965520 0.260103 0.010840 
0.968514 0.248756 0.010072 
0.971074 0.238594 0.009405 
0.973265 0.229515 0.008829 
0.975145 0.221410 0.008335 
0.976764 0.214172 0.007914 
0.978165 0.207694 0.007556 
0.979384 0.201879 0.007253 
0.980451 0.196639 0.006999 
0.981391 0.191901 0.006789 
0.982221 0.187611 0.006618 
0.982954 0.183735 0.006485 
0.983597 0.180269 0.006387 
0.984147 0.177242 0.006327 
0.984597 0.174726 0.006306 
0.984927 0.172856 0.006328 
0.985104 0.171839 0.006394 
0.985077 0.171992 0.006507 
0.984764 0.173770 0.006658 
0.984039 0.177823 0.006828 
0.982703 0.185057 0.006968 
0.980436 0.196713 0.006985 
0.976712 0.214450 0.006703 
0.970659 0.240389 0.005825 
0.960849 0.277045 0.003862 
0.945036 0.326966 0.000044 
0.920016 0.391823 -0.006816 
0.882102 0.470695 -0.018506 
0.829159 0.557752 -0.037532 
0.765210 0.640356 -0.066316 
0.708280 0.698632 -0.101256 
0.605748 0.787942 0.110527 
0.643609 0.760691 0.084363 
0.687858 0.722993 0.064275 
0.729528 0.682004 0.051571 
0.766127 0.641216 0.043492 
0.797484 0.602147 0.037924 
0.824161 0.565352 0.033707 
0.846866 0.530945 0.030268 
0.866256 0.498852 0.027331 
0.882885 0.468936 0.024752 
0.897203 0.441047 0.022453 
0.909567 0.415057 0.020385 
0.920263 0.390863 0.018515 
0.929517 0.368395 0.016822 
0.937518 0.347601 0.015290 
0.944421 0.328445 0.013910 
0.950361 0.310892 0.012674 
0.955457 0.294903 0.011575 
0.959818 0.280424 0.010605 
0.963540 0.267386 0.009756 
0.966713 0.255705 0.009019 
0.969416 0.245279 0.008385 
0.971721 0.236000 0.007843 
0.973692 0.227750 0.007384 
0.975381 0.220415 0.006997 
0.976837 0.213883 0.006673 
0.978097 0.208050 0.006405 
0.979195 0.202828 0.006186 
0.980155 0.198144 0.006010 
0.980995 0.193946 0.005874 
0.981726 0.190210 0.005774 
0.982354 0.186944 0.005712 
0.982873 0.184194 0.005686 
0.983270 0.182064 0.005699 
0.983517 0.180722 0.005751 
0.983570 0.180432 0.005843 
0.983358 0.181581 0.005969 
0.982773 0.184718 0.006112 
0.981645 0.190615 0.006235 
0.979708 0.200330 0.006265 
0.976535 0.215275 0.006073 
0.971429 0.237268 0.005439 
0.963269 0.268509 0.004023 
0.950291 0.311361 0.001314 
0.929908 0.367777 -0.003404 
0.898818 0.438181 -0.011127 
0.853923 0.519879 -0.023250 
0.794669 0.605607 -0.041737 
0.727031 0.683167 -0.068623 
0.669486 0.735948 -0.100839 
0.594040 0.797170 0.107874 
0.631947 0.770635 0.082249 
0.676420 0.733856 0.062548 
0.718521 0.693700 0.050069 
0.755736 0.653521 0.042122 
0.787840 0.614789 0.036641 
0.815343 0.578066 0.032487 
0.838905 0.543499 0.029099 
0.859147 0.511058 0.026202 
0.876596 0.480645 0.023655 
0.891683 0.452154 0.021381 
0.904755 0.425494 0.019331 
0.916087 0.400599 0.017476 
0.925904 0.377428 0.015795 
0.934393 0.355957 0.014275 
0.941712 0.336172 0.012909 
0.948001 0.318054 0.011688 
0.953384 0.301574 0.010607 
0.957977 0.286683 0.009658 
0.961885 0.273312 0.008834 
0.965204 0.261371 0.008124 
0.968021 0.250755 0.007519 
0.970414 0.241344 0.007008 
0.972450 0.233017 0.006579 
0.974189 0.225648 0.006224 
0.975679 0.219122 0.005932 
0.976963 0.213331 0.005695 
0.978074 0.208185 0.005507 
0.979037 0.203614 0.005361 
0.979869 0.199572 0.005255 
0.980582 0.196043 0.005187 
0.981175 0.193051 0.005154 
0.981641 0.190667 0.005157 
0.981959 0.189023 0.005196 
0.982091 0.188334 0.005270 
0.981978 0.188918 0.005374 
0.981528 0.191239 0.005494 
0.980599 0.195945 0.005602 
0.978970 0.203925 0.005642 
0.976296 0.216370 0.005515 
0.972025 0.234823 0.005056 
0.965284 0.261172 0.004012 
0.954709 0.297535 0.002018 
0.938275 0.345887 -0.001419 
0.913260 0.407319 -0.006914 
0.876636 0.480914 -0.015237 
0.826287 0.562580 -0.027440 
0.763211 0.644571 -0.045131 
0.694509 0.716050 -0.070210 
0.637949 0.763537 -0.100161 
0.584034 0.804829 0.105614 
0.621976 0.778891 0.080465 
0.666625 0.742884 0.061110 
0.709072 0.703443 0.048832 
0.746784 0.663801 0.041001 
0.779504 0.625385 0.035591 
0.807700 0.588752 0.031488 
0.831995 0.554069 0.028137 
0.852978 0.521335 0.025268 
0.871150 0.490489 0.022741 
0.886924 0.461462 0.020480 
0.900629 0.434198 0.018439 
0.912534 0.408665 0.016589 
0.922856 0.384856 0.014912 
0.931781 0.362774 0.013397 
0.939467 0.342427 0.012038 
0.946059 0.323814 0.010828 
0.951687 0.306914 0.009761 
0.956474 0.291683 0.008830 
0.960533 0.278050 0.008028 
0.963967 0.265921 0.007342 
0.966869 0.255182 0.006764 
0.969324 0.245707 0.006281 
0.971403 0.237363 0.005882 
0.973170 0.230022 0.005555 
0.974676 0.223559 0.005293 
0.975965 0.217866 0.005085 
0.977072 0.212853 0.004925 
0.978021 0.208452 0.004807 
0.978829 0.204625 0.004729 
0.979504 0.201370 0.004687 
0.980043 0.198729 0.004679 
0.980433 0.196796 0.004705 
0.980644 0.195742 0.004763 
0.980627 0.195826 0.004848 
0.980305 0.197429 0.004950 
0.979559 0.201091 0.005044 
0.978210 0.207556 0.005090 
0.975976 0.217820 0.005011 
0.972423 0.233178 0.004683 
0.966870 0.255240 0.003912 
0.958268 0.285860 0.002424 
0.945055 0.326911 -0.000146 
0.925065 0.379785 -0.004236 
0.895673 0.444593 -0.010330 
0.854426 0.519227 -0.018977 
0.800318 0.598775 -0.030974 
0.735540 0.675797 -0.047746 
0.667525 0.741174 -0.071216 
0.612754 0.784004 -0.099343 
0.575450 0.811238 0.103685 
0.613416 0.785804 0.078950 
0.658207 0.750450 0.059901 
0.700937 0.711620 0.047801 
0.739063 0.672444 0.040070 
0.772303 0.634305 0.034721 
0.801093 0.597755 0.030657 
0.826026 0.562969 0.027333 
0.847662 0.529971 0.024481 
0.866480 0.498729 0.021965 
0.882869 0.469206 0.019708 
0.897146 0.441381 0.017666 
0.909566 0.415258 0.015814 
0.920342 0.390860 0.014134 
0.929653 0.368221 0.012619 
0.937660 0.347372 0.011262 
0.944511 0.328325 0.010059 
0.950344 0.311072 0.009004 
0.955287 0.295568 0.008090 
0.959462 0.281742 0.007307 
0.962980 0.269492 0.006645 
0.965940 0.258696 0.006093 
0.968431 0.249218 0.005637 
0.970531 0.240919 0.005265 
0.972305 0.233661 0.004967 
0.973809 0.227316 0.004732 
0.975087 0.221775 0.004551 
0.976173 0.216948 0.004417 
0.977092 0.212773 0.004325 
0.977859 0.209222 0.004271 
0.978478 0.206306 0.004252 
0.978943 0.204089 0.004265 
0.979232 0.202695 0.004308 
0.979308 0.202330 0.004377 
0.979105 0.203306 0.004461 
0.978528 0.206065 0.004544 
0.977427 0.211223 0.004593 
0.975577 0.219609 0.004549 
0.972633 0.232307 0.004318 
0.968064 0.250675 0.003753 
0.961063 0.276318 0.002642 
0.950429 0.310942 0.000702 
0.934470 0.356033 -0.002403 
0.911028 0.412285 -0.007032 
0.877784 0.478866 -0.013524 
0.833021 0.552794 -0.022246 
0.776737 0.628915 -0.033842 
0.711835 0.700587 -0.049682 
0.645515 0.760367 -0.071782 
0.592827 0.799287 -0.098471 
0.568057 0.816640 0.102033 
0.606038 0.791635 0.077659 
0.650946 0.756837 0.058878 
0.693915 0.718526 0.046934 
0.732395 0.679745 0.039290 
0.766086 0.641839 0.033992 
0.795398 0.605347 0.029958 
0.820897 0.570453 0.026652 
0.843120 0.537197 0.023809 
0.862521 0.505573 0.021294 
0.879470 0.475575 0.019033 
0.894265 0.447215 0.016984 
0.907151 0.420534 0.015122 
0.918331 0.395586 0.013435 
0.927982 0.372436 0.011915 
0.936265 0.351135 0.010557 
0.943334 0.331713 0.009359 
0.949331 0.314168 0.008314 
0.954394 0.298457 0.007415 
0.958652 0.284503 0.006652 
0.962223 0.272198 0.006014 
0.965213 0.261408 0.005487 
0.967717 0.251988 0.005057 
0.969817 0.243790 0.004713 
0.971580 0.236670 0.004441 
0.973064 0.230497 0.004232 
0.974314 0.225159 0.004077 
0.975363 0.220570 0.003968 
0.976236 0.216675 0.003899 
0.976945 0.213457 0.003866 
0.977490 0.210945 0.003866 
0.977860 0.209225 0.003895 
0.978024 0.208453 0.003949 
0.977934 0.208876 0.004019 
0.977509 0.210855 0.004091 
0.976629 0.214894 0.004140 
0.975111 0.221680 0.004121 
0.972681 0.232114 0.003962 
0.968923 0.247336 0.003551 
0.963215 0.268718 0.002724 
0.954634 0.297780 0.001260 
0.941869 0.335979 -0.001112 
0.923190 0.384314 -0.004681 
0.896586 0.442764 -0.009710 
0.860193 0.509704 -0.016408 
0.813043 0.581666 -0.025012 
0.755891 0.653702 -0.036098 
0.691911 0.720174 -0.051064 
0.627760 0.775067 -0.072035 
0.577148 0.810785 -0.097606 
0.561664 0.821225 0.100614 
0.599656 0.796587 0.076556 
0.644665 0.762262 0.058009 
0.687842 0.724388 0.046202 
0.726636 0.685935 0.038633 
0.760728 0.648212 0.033376 
0.790510 0.611744 0.029365 
0.816525 0.576721 0.026069 
0.839284 0.543196 0.023227 
0.859220 0.511188 0.020706 
0.876681 0.480719 0.018434 
0.891950 0.451837 0.016370 
0.905257 0.424617 0.014494 
0.916797 0.399149 0.012794 
0.926744 0.375525 0.011265 
0.935261 0.353820 0.009905 
0.942505 0.334078 0.008710 
0.948628 0.316302 0.007675 
0.953774 0.300448 0.006792 
0.958082 0.286431 0.006049 
0.961676 0.274134 0.005434 
0.964671 0.263411 0.004933 
0.967165 0.254109 0.004530 
0.969244 0.246068 0.004212 
0.970977 0.239138 0.003967 
0.972425 0.233186 0.003783 
0.973631 0.228101 0.003651 
0.974629 0.223800 0.003565 
0.975440 0.220237 0.003517 
0.976074 0.217409 0.003502 
0.976528 0.215364 0.003517 
0.976781 0.214212 0.003556 
0.976796 0.214144 0.003613 
0.976509 0.215446 0.003675 
0.975823 0.218530 0.003722 
0.974592 0.223958 0.003720 
0.972595 0.232476 0.003615 
0.969508 0.245037 0.003319 
0.964846 0.262803 0.002706 
0.957898 0.287106 0.001604 
0.947652 0.319305 -0.000207 
0.932744 0.360528 -0.002969 
0.911499 0.411245 -0.006910 
0.882167 0.470780 -0.012198 
0.843402 0.536950 -0.018936 
0.794884 0.606147 -0.027288 
0.737838 0.673917 -0.037828 
0.675390 0.735624 -0.052017 
0.613535 0.786371 -0.072080 
0.564847 0.819500 -0.096790 
0.556117 0.825139 0.099392 
0.594118 0.800817 0.075609 
0.639217 0.766891 0.057268 
0.682585 0.729383 0.045581 
0.721666 0.691193 0.038077 
0.756128 0.653598 0.032854 
0.786345 0.617113 0.028858 
0.812838 0.581928 0.025565 
0.836097 0.548111 0.022717 
0.856530 0.515702 0.020183 
0.874467 0.484754 0.017892 
0.890172 0.455351 0.015808 
0.903859 0.427604 0.013912 
0.915717 0.401639 0.012195 
0.925917 0.377576 0.010655 
0.934625 0.355512 0.009291 
0.942004 0.335504 0.008099 
0.948213 0.317556 0.007075 
0.953407 0.301622 0.006208 
0.957733 0.287608 0.005487 
0.961323 0.275382 0.004896 
0.964297 0.264788 0.004421 
0.966759 0.255659 0.004045 
0.968797 0.247828 0.003753 
0.970484 0.241140 0.003534 
0.971879 0.235458 0.003374 
0.973026 0.230673 0.003265 
0.973957 0.226708 0.003199 
0.974692 0.223529 0.003169 
0.975236 0.221145 0.003169 
0.975579 0.219627 0.003195 
0.975695 0.219111 0.003238 
0.975535 0.219821 0.003290 
0.975021 0.222087 0.003334 
0.974037 0.226364 0.003344 
0.972407 0.233267 0.003276 
0.969874 0.243588 0.003065 
0.966060 0.258305 0.002614 
0.960415 0.278566 0.001787 
0.952158 0.305605 0.000409 
0.940221 0.340561 -0.001725 
0.923244 0.384183 -0.004818 
0.899695 0.436426 -0.009032 
0.868154 0.496085 -0.014449 
0.827774 0.560664 -0.021098 
0.778727 0.626686 -0.029120 
0.722448 0.690317 -0.039125 
0.661823 0.747809 -0.052651 
0.602192 0.795099 -0.071995 
0.555212 0.826144 -0.096046 
0.551289 0.828499 0.098338 
0.589300 0.804445 0.074796 
0.634487 0.770856 0.056634 
0.678036 0.733646 0.045052 
0.717389 0.695657 0.037604 
0.752202 0.658135 0.032407 
0.782831 0.621584 0.028421 
0.809779 0.586196 0.025125 
0.833512 0.552052 0.022263 
0.854417 0.519215 0.019708 
0.872799 0.487770 0.017393 
0.888904 0.457838 0.015282 
0.902935 0.429569 0.013361 
0.915071 0.403124 0.011625 
0.925483 0.378655 0.010072 
0.934339 0.356278 0.008703 
0.941811 0.336058 0.007516 
0.948068 0.318001 0.006503 
0.953275 0.302052 0.005655 
0.957586 0.288104 0.004956 
0.961144 0.276013 0.004391 
0.964073 0.265607 0.003943 
0.966483 0.256707 0.003594 
0.968462 0.249139 0.003329 
0.970086 0.242741 0.003135 
0.971413 0.237375 0.002998 
0.972488 0.232936 0.002910 
0.973339 0.229354 0.002862 
0.973982 0.226606 0.002847 
0.974419 0.224719 0.002859 
0.974634 0.223784 0.002890 
0.974592 0.223968 0.002932 
0.974233 0.225526 0.002972 
0.973463 0.228827 0.002988 
0.972143 0.234370 0.002947 
0.970070 0.242809 0.002799 
0.966948 0.254963 0.002469 
0.962348 0.271813 0.001851 
0.955666 0.294451 0.000805 
0.946069 0.323964 -0.000838 
0.932472 0.361228 -0.003258 
0.913582 0.406602 -0.006614 
0.888065 0.459586 -0.011002 
0.854858 0.518602 -0.016437 
0.813540 0.581058 -0.022910 
0.764598 0.643782 -0.030568 
0.709488 0.703577 -0.040080 
0.650763 0.757425 -0.053055 
0.593180 0.801858 -0.071838 
0.547680 0.831233 -0.095389 
0.547076 0.831394 0.097427 
0.585102 0.807568 0.074095 
0.630379 0.774258 0.056092 
0.674109 0.737284 0.044601 
0.713728 0.699435 0.037200 
0.748883 0.661928 0.032024 
0.779915 0.625257 0.028040 
0.807304 0.589617 0.024734 
0.831496 0.555101 0.021852 
0.852851 0.521799 0.019270 
0.871653 0.489830 0.016923 
0.888130 0.459355 0.014780 
0.902468 0.430565 0.012831 
0.914843 0.403659 0.011072 
0.925423 0.378817 0.009506 
0.934385 0.356173 0.008134 
0.941908 0.335799 0.006952 
0.948174 0.317696 0.005953 
0.953358 0.301798 0.005125 
0.957625 0.287983 0.004452 
0.961124 0.276089 0.003914 
0.963986 0.265930 0.003494 
0.966322 0.257315 0.003173 
0.968226 0.250059 0.002934 
0.969772 0.243997 0.002764 
0.971018 0.238992 0.002650 
0.972006 0.234942 0.002581 
0.972763 0.231787 0.002549 
0.973302 0.229515 0.002546 
0.973617 0.228174 0.002565 
0.973687 0.227877 0.002597 
0.973466 0.228816 0.002631 
0.972883 0.231283 0.002650 
0.971828 0.235678 0.002628 
0.970138 0.242539 0.002526 
0.967582 0.252546 0.002286 
0.963826 0.266527 0.001826 
0.958398 0.285435 0.001034 
0.950649 0.310269 -0.000227 
0.939721 0.341935 -0.002112 
0.924553 0.381024 -0.004772 
0.903965 0.427526 -0.008319 
0.876859 0.480578 -0.012792 
0.842503 0.538385 -0.018162 
0.800805 0.598428 -0.024403 
0.752414 0.657928 -0.031697 
0.698679 0.714272 -0.040773 
0.641802 0.765016 -0.053298 
0.586048 0.807102 -0.071650 
0.541810 0.835135 -0.094821 
0.543397 0.833895 0.096639 
0.581444 0.810260 0.073492 
0.626819 0.777177 0.055627 
0.670733 0.740380 0.044215 
0.710622 0.702608 0.036854 
0.746120 0.665056 0.031692 
0.777553 0.628207 0.027705 
0.805380 0.592257 0.024381 
0.830021 0.557318 0.021473 
0.851813 0.523506 0.018856 
0.871015 0.490980 0.016471 
0.887833 0.459943 0.014292 
0.902444 0.430631 0.012310 
0.915015 0.403281 0.010528 
0.925721 0.378102 0.008949 
0.934744 0.355242 0.007574 
0.942276 0.334775 0.006401 
0.948512 0.316694 0.005419 
0.953639 0.300916 0.004614 
0.957832 0.287301 0.003968 
0.961247 0.275668 0.003459 
0.964019 0.265814 0.003069 
0.966265 0.257536 0.002776 
0.968077 0.250640 0.002564 
0.969530 0.244959 0.002417 
0.970682 0.240356 0.002323 
0.971571 0.236736 0.002272 
0.972222 0.234048 0.002253 
0.972642 0.232297 0.002259 
0.972821 0.231546 0.002281 
0.972729 0.231933 0.002309 
0.972311 0.233679 0.002329 
0.971482 0.237102 0.002319 
0.970115 0.242637 0.002250 
0.968025 0.250845 0.002077 
0.964952 0.262422 0.001735 
0.960527 0.278184 0.001138 
0.954245 0.299026 0.000174 
0.945428 0.325828 -0.001289 
0.933220 0.359291 -0.003387 
0.916617 0.399719 -0.006238 
0.894588 0.446783 -0.009907 
0.866275 0.499361 -0.014391 
0.831231 0.555580 -0.019633 
0.789584 0.613107 -0.025617 
0.742029 0.669576 -0.032567 
0.689740 0.722880 -0.041269 
0.634584 0.771004 -0.053435 
0.580434 0.811166 -0.071457 
0.537264 0.838121 -0.094343 
0.540183 0.836059 0.095958 
0.578262 0.812581 0.072972 
0.623745 0.779674 0.055228 
0.667856 0.742996 0.043886 
0.708024 0.705241 0.036557 
0.743876 0.667580 0.031403 
0.775716 0.630486 0.027405 
0.803985 0.594163 0.024058 
0.829074 0.558741 0.021114 
0.851292 0.524368 0.018456 
0.870874 0.491245 0.016027 
0.888005 0.459626 0.013806 
0.902851 0.429792 0.011790 
0.915577 0.402020 0.009984 
0.926361 0.376544 0.008392 
0.935399 0.353524 0.007019 
0.942898 0.333031 0.005857 
0.949065 0.315042 0.004896 
0.954101 0.299456 0.004118 
0.958190 0.286110 0.003501 
0.961497 0.274800 0.003024 
0.964160 0.265309 0.002664 
0.966297 0.257418 0.002400 
0.968003 0.250929 0.002214 
0.969351 0.245670 0.002090 
0.970397 0.241509 0.002015 
0.971176 0.238356 0.001978 
0.971709 0.236173 0.001970 
0.971998 0.234980 0.001982 
0.972027 0.234860 0.002003 
0.971758 0.235973 0.002021 
0.971124 0.238565 0.002020 
0.970028 0.242983 0.001975 
0.968325 0.249684 0.001851 
0.965810 0.259247 0.001599 
0.962193 0.272365 0.001149 
0.957080 0.289824 0.000413 
0.949937 0.312440 -0.000718 
0.940080 0.340946 -0.002364 
0.926676 0.375832 -0.004640 
0.908811 0.417139 -0.007629 
0.885615 0.464281 -0.011360 
0.856456 0.515978 -0.015796 
0.821109 0.570390 -0.020874 
0.779828 0.625429 -0.026596 
0.733269 0.679126 -0.033233 
0.682406 0.729787 -0.041620 
0.628813 0.775713 -0.053503 
0.576050 0.814301 -0.071276 
0.533778 0.840390 -0.093951 
0.537381 0.837930 0.095369 
0.575503 0.814577 0.072525 
0.621111 0.781798 0.054888 
0.665435 0.745181 0.043605 
0.705902 0.707379 0.036301 
0.742123 0.669540 0.031148 
0.774386 0.632131 0.027133 
0.803106 0.595363 0.023754 
0.828645 0.559390 0.020768 
0.851282 0.524398 0.018061 
0.871225 0.490637 0.015581 
0.888639 0.458414 0.013315 
0.903680 0.428061 0.011262 
0.916513 0.399894 0.009432 
0.927328 0.374169 0.007831 
0.936334 0.351052 0.006462 
0.943754 0.330605 0.005317 
0.949814 0.312786 0.004380 
0.954725 0.297466 0.003633 
0.958684 0.284457 0.003050 
0.961859 0.273535 0.002606 
0.964394 0.264461 0.002277 
0.966408 0.257006 0.002042 
0.967994 0.250966 0.001881 
0.969225 0.246168 0.001779 
0.970154 0.242484 0.001722 
0.970813 0.239833 0.001698 
0.971217 0.238190 0.001698 
0.971364 0.237589 0.001711 
0.971231 0.238134 0.001726 
0.970770 0.240007 0.001730 
0.969905 0.243477 0.001702 
0.968524 0.248913 0.001615 
0.966466 0.256790 0.001429 
0.963504 0.267691 0.001092 
0.959328 0.282294 0.000531 
0.953519 0.301334 -0.000341 
0.945531 0.325529 -0.001628 
0.934686 0.355458 -0.003434 
0.920202 0.391401 -0.005851 
0.901267 0.433172 -0.008930 
0.877178 0.479999 -0.012671 
0.847493 0.530533 -0.017018 
0.812147 0.583042 -0.021910 
0.771443 0.635709 -0.027380 
0.725951 0.686919 -0.033740 
0.676442 0.735305 -0.041869 
0.624243 0.779394 -0.053531 
0.572670 0.816695 -0.071120 
0.531151 0.842087 -0.093640 
0.534950 0.839541 0.094863 
0.573129 0.816283 0.072143 
0.618882 0.783584 0.054598 
0.663442 0.746970 0.043366 
0.704231 0.709054 0.036080 
0.740846 0.670963 0.030920 
0.773554 0.633160 0.026881 
0.802740 0.595868 0.023461 
0.828735 0.559269 0.020424 
0.851784 0.523595 0.017660 
0.872067 0.489152 0.015125 
0.889730 0.456307 0.012809 
0.904922 0.425443 0.010719 
0.917812 0.396916 0.008867 
0.928605 0.370999 0.007261 
0.937528 0.347859 0.005901 
0.944826 0.327537 0.004777 
0.950739 0.309967 0.003871 
0.955495 0.294991 0.003158 
0.959296 0.282390 0.002611 
0.962319 0.271916 0.002202 
0.964709 0.263313 0.001906 
0.966585 0.256341 0.001700 
0.968040 0.250789 0.001564 
0.969145 0.246488 0.001482 
0.969947 0.243313 0.001440 
0.970476 0.241194 0.001426 
0.970742 0.240119 0.001431 
0.970737 0.240139 0.001442 
0.970430 0.241378 0.001448 
0.969765 0.244037 0.001432 
0.968655 0.248405 0.001371 
0.966975 0.254869 0.001236 
0.964546 0.263912 0.000984 
0.961125 0.276112 0.000558 
0.956382 0.292118 -0.000113 
0.949885 0.312598 -0.001116 
0.941085 0.338159 -0.002542 
0.929330 0.369223 -0.004483 
0.913899 0.405880 -0.007003 
0.894097 0.447760 -0.010130 
0.869370 0.493968 -0.013839 
0.839432 0.543165 -0.018069 
0.804314 0.593768 -0.022770 
0.764319 0.644230 -0.028006 
0.719900 0.693238 -0.034128 
0.671644 0.739680 -0.042046 
0.620672 0.782240 -0.053539 
0.570117 0.818490 -0.070993 
0.529228 0.843323 -0.093405 
0.532856 0.840921 0.094431 
0.571109 0.817727 0.071819 
0.617031 0.785059 0.054354 
0.661858 0.748386 0.043162 
0.703000 0.710284 0.035886 
0.740040 0.671861 0.030713 
0.773220 0.633578 0.026640 
0.802893 0.595673 0.023172 
0.829351 0.558367 0.020074 
0.852805 0.521944 0.017245 
0.873404 0.486777 0.014648 
0.891276 0.453295 0.012280 
0.906568 0.421938 0.010153 
0.919460 0.393096 0.008283 
0.930175 0.367056 0.006677 
0.938965 0.343973 0.005333 
0.946094 0.323864 0.004237 
0.951823 0.306630 0.003366 
0.956391 0.292076 0.002692 
0.960011 0.279953 0.002184 
0.962862 0.269987 0.001812 
0.965092 0.261905 0.001550 
0.966819 0.255457 0.001372 
0.968134 0.250431 0.001260 
0.969102 0.246657 0.001196 
0.969770 0.244019 0.001167 
0.970161 0.242458 0.001162 
0.970281 0.241977 0.001167 
0.970115 0.242642 0.001173 
0.969625 0.244595 0.001165 
0.968745 0.248057 0.001124 
0.967379 0.253332 0.001027 
0.965387 0.260819 0.000839 
0.962579 0.271002 0.000516 
0.958693 0.284442 0.000001 
0.953388 0.301746 -0.000778 
0.946224 0.323505 -0.001900 
0.936665 0.350210 -0.003449 
0.924092 0.382131 -0.005496 
0.907861 0.419192 -0.008086 
0.887388 0.460887 -0.011224 
0.862252 0.506261 -0.014872 
0.832280 0.554031 -0.018968 
0.797554 0.602790 -0.023481 
0.758336 0.651241 -0.028506 
0.714957 0.698320 -0.034427 
0.667840 0.743109 -0.042175 