# OOMMF: rectangular mesh v0.99 
# Segment count: 1 
# Begin: Segment 
# Begin: Header 
# Title: model.omf 
# Desc: 
# meshunit: unknown 
# xbase: 0 
# ybase: 0 
# zbase: 0 
# xstepsize: 1
# ystepsize: 1 
# zstepsize: 1 
# xnodes: 50 
# ynodes: 50 
# znodes: 4 
# xmin: -0.5 
# ymin: -0.5 
# zmin: -0.5 
# xmax: 49.500000 
# ymax: 49.500000 
# zmax: 3.500000 
# valueunit: Ms 
# valuemultiplier: 1 
# ValueRangeMaxMag:  1. 
# ValueRangeMinMag:  1e-8 
# End: Header 
# Begin: data text 
0.753235 0.639200 0.155115 
0.790434 0.597198 0.136269 
0.826692 0.549858 0.119315 
0.856836 0.504577 0.105988 
0.880881 0.463617 0.095432 
0.899919 0.427338 0.086766 
0.915075 0.395386 0.079424 
0.927269 0.367197 0.073071 
0.937199 0.342202 0.067500 
0.945383 0.319899 0.062568 
0.952205 0.299868 0.058171 
0.957948 0.281773 0.054227 
0.962821 0.265345 0.050672 
0.966984 0.250379 0.047454 
0.970559 0.236713 0.044534 
0.973638 0.224222 0.041881 
0.976297 0.212806 0.039468 
0.978597 0.202383 0.037275 
0.980587 0.192881 0.035285 
0.982312 0.184234 0.033481 
0.983807 0.176377 0.031849 
0.985106 0.169247 0.030374 
0.986235 0.162779 0.029041 
0.987221 0.156907 0.027838 
0.988085 0.151568 0.026750 
0.988846 0.146698 0.025765 
0.989520 0.142237 0.024870 
0.990122 0.138127 0.024053 
0.990664 0.134317 0.023305 
0.991156 0.130760 0.022616 
0.991606 0.127417 0.021978 
0.992019 0.124259 0.021388 
0.992401 0.121267 0.020840 
0.992754 0.118435 0.020335 
0.993077 0.115771 0.019876 
0.993369 0.113309 0.019468 
0.993625 0.111105 0.019122 
0.993835 0.109254 0.018853 
0.993987 0.107894 0.018681 
0.994060 0.107224 0.018628 
0.994027 0.107518 0.018714 
0.993846 0.109140 0.018940 
0.993460 0.112547 0.019261 
0.992789 0.118273 0.019504 
0.991737 0.126842 0.019208 
0.990208 0.138526 0.017275 
0.988186 0.152837 0.011357 
0.985853 0.167586 -0.002915 
0.983557 0.177846 -0.031422 
0.981346 0.177841 -0.073022 
0.728369 0.669831 0.144241 
0.766854 0.630660 0.119174 
0.806309 0.582997 0.099903 
0.839449 0.536484 0.086658 
0.865979 0.494101 0.077101 
0.887056 0.456375 0.069671 
0.903904 0.422988 0.063547 
0.917520 0.393391 0.058315 
0.928658 0.367023 0.053751 
0.937875 0.343391 0.049721 
0.945587 0.322083 0.046130 
0.952099 0.302766 0.042910 
0.957639 0.285178 0.040007 
0.962382 0.269116 0.037380 
0.966460 0.254421 0.034998 
0.969976 0.240972 0.032834 
0.973014 0.228671 0.030868 
0.975641 0.217435 0.029084 
0.977914 0.207193 0.027467 
0.979882 0.197877 0.026005 
0.981586 0.189419 0.024686 
0.983064 0.181752 0.023497 
0.984348 0.174805 0.022427 
0.985466 0.168509 0.021465 
0.986445 0.162793 0.020599 
0.987306 0.157589 0.019818 
0.988068 0.152828 0.019112 
0.988747 0.148451 0.018472 
0.989358 0.144399 0.017889 
0.989911 0.140624 0.017356 
0.990416 0.137085 0.016867 
0.990879 0.133751 0.016418 
0.991305 0.130605 0.016007 
0.991697 0.127644 0.015634 
0.992053 0.124885 0.015302 
0.992371 0.122371 0.015017 
0.992642 0.120178 0.014789 
0.992855 0.118427 0.014631 
0.992990 0.117295 0.014559 
0.993020 0.117040 0.014590 
0.992902 0.118018 0.014736 
0.992574 0.120717 0.014989 
0.991940 0.125779 0.015292 
0.990858 0.134018 0.015454 
0.989113 0.146390 0.014992 
0.986399 0.163871 0.012764 
0.982316 0.187123 0.006299 
0.976390 0.215823 -0.009107 
0.968076 0.247439 -0.040028 
0.957668 0.274918 -0.085390 
0.701523 0.699788 0.134765 
0.739760 0.664309 0.106999 
0.781187 0.618330 0.086116 
0.817135 0.571850 0.072652 
0.846453 0.528650 0.063618 
0.870027 0.489700 0.056981 
0.889043 0.454897 0.051692 
0.904524 0.423796 0.047250 
0.917268 0.395899 0.043405 
0.927872 0.370745 0.040020 
0.936784 0.347946 0.037007 
0.944337 0.327187 0.034307 
0.950782 0.308217 0.031873 
0.956311 0.290842 0.029671 
0.961071 0.274912 0.027674 
0.965179 0.260310 0.025862 
0.968727 0.246944 0.024220 
0.971794 0.234734 0.022732 
0.974444 0.223608 0.021389 
0.976735 0.213498 0.020178 
0.978716 0.204332 0.019091 
0.980429 0.196037 0.018117 
0.981915 0.188537 0.017246 
0.983206 0.181756 0.016468 
0.984333 0.175614 0.015773 
0.985321 0.170036 0.015151 
0.986194 0.164947 0.014595 
0.986971 0.160281 0.014095 
0.987667 0.155975 0.013644 
0.988296 0.151976 0.013238 
0.988867 0.148242 0.012870 
0.989390 0.144743 0.012539 
0.989868 0.141464 0.012243 
0.990302 0.138411 0.011984 
0.990692 0.135614 0.011764 
0.991030 0.133135 0.011591 
0.991305 0.131080 0.011472 
0.991499 0.129612 0.011421 
0.991582 0.128974 0.011450 
0.991510 0.129513 0.011570 
0.991217 0.131719 0.011784 
0.990597 0.136275 0.012069 
0.989485 0.144110 0.012340 
0.987607 0.156462 0.012369 
0.984514 0.174920 0.011608 
0.979473 0.201384 0.008823 
0.971318 0.237779 0.001419 
0.958386 0.285060 -0.015397 
0.939088 0.340320 -0.047922 
0.916190 0.389588 -0.093902 
0.676558 0.725267 0.127505 
0.714478 0.692590 0.099194 
0.756969 0.648804 0.077794 
0.794950 0.603262 0.064264 
0.826615 0.560024 0.055502 
0.852486 0.520422 0.049290 
0.873603 0.484603 0.044464 
0.890956 0.452283 0.040467 
0.905346 0.423056 0.037031 
0.917393 0.396526 0.034013 
0.927566 0.372343 0.031331 
0.936221 0.350219 0.028926 
0.943628 0.329924 0.026758 
0.949995 0.311280 0.024797 
0.955482 0.294150 0.023021 
0.960219 0.278428 0.021411 
0.964309 0.264026 0.019954 
0.967841 0.250872 0.018639 
0.970889 0.238894 0.017456 
0.973518 0.228022 0.016396 
0.975785 0.218184 0.015449 
0.977742 0.209300 0.014607 
0.979434 0.201288 0.013860 
0.980900 0.194063 0.013198 
0.982176 0.187538 0.012613 
0.983292 0.181631 0.012095 
0.984275 0.176259 0.011637 
0.985146 0.171350 0.011231 
0.985925 0.166837 0.010871 
0.986625 0.162664 0.010552 
0.987259 0.158789 0.010270 
0.987835 0.155185 0.010022 
0.988356 0.151842 0.009810 
0.988824 0.148778 0.009634 
0.989233 0.146040 0.009499 
0.989574 0.143718 0.009411 
0.989828 0.141956 0.009379 
0.989968 0.140976 0.009413 
0.989950 0.141099 0.009521 
0.989705 0.142792 0.009707 
0.989129 0.146712 0.009958 
0.988052 0.153778 0.010228 
0.986195 0.165259 0.010389 
0.983086 0.182863 0.010150 
0.977917 0.208805 0.008880 
0.969327 0.245719 0.005255 
0.955147 0.296114 -0.003324 
0.932479 0.360593 -0.021351 
0.899532 0.433484 -0.054161 
0.863422 0.494792 -0.098401 
0.654564 0.746116 0.121888 
0.692346 0.715430 0.093895 
0.735490 0.673634 0.072599 
0.774878 0.629334 0.059186 
0.808339 0.586536 0.050621 
0.836101 0.546755 0.044655 
0.859042 0.510333 0.040087 
0.878079 0.477135 0.036337 
0.893989 0.446862 0.033125 
0.907393 0.419189 0.030310 
0.918768 0.393816 0.027808 
0.928484 0.370493 0.025564 
0.936821 0.349015 0.023540 
0.944001 0.329227 0.021710 
0.950195 0.311009 0.020052 
0.955543 0.294267 0.018552 
0.960159 0.278925 0.017198 
0.964139 0.264916 0.015980 
0.967568 0.252172 0.014890 
0.970519 0.240623 0.013918 
0.973057 0.230194 0.013055 
0.975242 0.220799 0.012294 
0.977125 0.212350 0.011625 
0.978751 0.204754 0.011038 
0.980162 0.197918 0.010525 
0.981392 0.191750 0.010076 
0.982471 0.186162 0.009685 
0.983425 0.181076 0.009343 
0.984273 0.176421 0.009046 
0.985033 0.172141 0.008789 
0.985717 0.168195 0.008568 
0.986332 0.164559 0.008382 
0.986882 0.161235 0.008232 
0.987365 0.158254 0.008119 
0.987774 0.155687 0.008049 
0.988092 0.153657 0.008027 
0.988293 0.152357 0.008060 
0.988335 0.152076 0.008155 
0.988155 0.153234 0.008315 
0.987652 0.156433 0.008530 
0.986666 0.162520 0.008768 
0.984938 0.172674 0.008944 
0.982032 0.188507 0.008877 
0.977202 0.212151 0.008203 
0.969183 0.246264 0.006206 
0.955885 0.293739 0.001530 
0.934188 0.356685 -0.008278 
0.900540 0.433927 -0.027121 
0.854311 0.516384 -0.059167 
0.807484 0.581268 -0.100483 
0.635634 0.763014 0.117381 
0.673402 0.733780 0.089981 
0.717011 0.693634 0.069042 
0.757395 0.650564 0.055846 
0.792200 0.608413 0.047457 
0.821456 0.568748 0.041658 
0.845905 0.532031 0.037248 
0.866384 0.498244 0.033644 
0.883632 0.467183 0.030565 
0.898254 0.438592 0.027866 
0.910726 0.412226 0.025465 
0.921418 0.387874 0.023311 
0.930619 0.365365 0.021368 
0.938557 0.344568 0.019609 
0.945410 0.325384 0.018017 
0.951327 0.307736 0.016579 
0.956430 0.291560 0.015284 
0.960824 0.276798 0.014123 
0.964602 0.263385 0.013089 
0.967845 0.251253 0.012172 
0.970627 0.240322 0.011365 
0.973013 0.230502 0.010658 
0.975063 0.221699 0.010042 
0.976829 0.213812 0.009507 
0.978354 0.206739 0.009045 
0.979680 0.200382 0.008647 
0.980838 0.194648 0.008305 
0.981857 0.189452 0.008012 
0.982760 0.184724 0.007762 
0.983563 0.180405 0.007552 
0.984280 0.176459 0.007379 
0.984918 0.172869 0.007241 
0.985479 0.169650 0.007140 
0.985957 0.166851 0.007078 
0.986340 0.164572 0.007059 
0.986605 0.162976 0.007087 
0.986713 0.162312 0.007168 
0.986607 0.162949 0.007303 
0.986195 0.165417 0.007484 
0.985333 0.170467 0.007686 
0.983791 0.179147 0.007846 
0.981189 0.192891 0.007837 
0.976891 0.213611 0.007419 
0.969823 0.243732 0.006155 
0.958211 0.286044 0.003277 
0.939295 0.343100 -0.002528 
0.909383 0.415744 -0.013423 
0.865201 0.500364 -0.032599 
0.808328 0.585331 -0.063193 
0.754646 0.648274 -0.101245 
0.619489 0.776734 0.113657 
0.657296 0.748606 0.086893 
0.701264 0.709804 0.066383 
0.742379 0.667846 0.053435 
0.778198 0.626390 0.045208 
0.808627 0.586992 0.039537 
0.834303 0.550179 0.035237 
0.855993 0.516012 0.031730 
0.874395 0.484363 0.028734 
0.890089 0.455039 0.026108 
0.903539 0.427847 0.023769 
0.915113 0.402615 0.021668 
0.925100 0.379209 0.019771 
0.933729 0.357524 0.018053 
0.941186 0.337487 0.016500 
0.947621 0.319039 0.015098 
0.953166 0.302130 0.013839 
0.957933 0.286711 0.012714 
0.962021 0.272723 0.011717 
0.965522 0.260097 0.010839 
0.968515 0.248751 0.010071 
0.971075 0.238590 0.009404 
0.973266 0.229512 0.008829 
0.975145 0.221409 0.008335 
0.976764 0.214172 0.007914 
0.978164 0.207695 0.007556 
0.979383 0.201881 0.007254 
0.980450 0.196642 0.007000 
0.981390 0.191904 0.006790 
0.982220 0.187614 0.006620 
0.982954 0.183739 0.006486 
0.983596 0.180272 0.006389 
0.984147 0.177244 0.006328 
0.984596 0.174728 0.006307 
0.984927 0.172857 0.006328 
0.985104 0.171839 0.006395 
0.985077 0.171990 0.006507 
0.984764 0.173767 0.006658 
0.984040 0.177819 0.006827 
0.982704 0.185050 0.006968 
0.980438 0.196705 0.006983 
0.976714 0.214439 0.006701 
0.970662 0.240376 0.005823 
0.960853 0.277030 0.003860 
0.945042 0.326950 0.000041 
0.920023 0.391805 -0.006820 
0.882112 0.470677 -0.018511 
0.829171 0.557734 -0.037539 
0.765223 0.640339 -0.066325 
0.708295 0.698616 -0.101266 
0.605748 0.787942 0.110527 
0.643608 0.760691 0.084364 
0.687858 0.722994 0.064275 
0.729528 0.682004 0.051571 
0.766127 0.641216 0.043492 
0.797484 0.602146 0.037924 
0.824162 0.565350 0.033707 
0.846868 0.530942 0.030268 
0.866258 0.498848 0.027330 
0.882888 0.468931 0.024751 
0.897206 0.441041 0.022452 
0.909571 0.415049 0.020383 
0.920266 0.390855 0.018513 
0.929521 0.368386 0.016819 
0.937521 0.347591 0.015288 
0.944424 0.328435 0.013908 
0.950364 0.310883 0.012672 
0.955460 0.294894 0.011573 
0.959820 0.280416 0.010603 
0.963542 0.267380 0.009754 
0.966714 0.255699 0.009018 
0.969417 0.245275 0.008384 
0.971722 0.235997 0.007843 
0.973692 0.227749 0.007384 
0.975381 0.220415 0.006997 
0.976836 0.213884 0.006674 
0.978097 0.208052 0.006406 
0.979194 0.202831 0.006187 
0.980154 0.198147 0.006011 
0.980994 0.193950 0.005875 
0.981726 0.190214 0.005776 
0.982353 0.186947 0.005713 
0.982873 0.184197 0.005687 
0.983270 0.182065 0.005700 
0.983517 0.180723 0.005752 
0.983570 0.180432 0.005844 
0.983358 0.181579 0.005969 
0.982773 0.184714 0.006112 
0.981646 0.190610 0.006234 
0.979710 0.200323 0.006264 
0.976537 0.215265 0.006071 
0.971432 0.237256 0.005437 
0.963273 0.268495 0.004020 
0.950296 0.311345 0.001311 
0.929915 0.367759 -0.003408 
0.898827 0.438162 -0.011131 
0.853934 0.519861 -0.023255 
0.794682 0.605589 -0.041744 
0.727045 0.683151 -0.068631 
0.669500 0.735934 -0.100848 
0.594040 0.797170 0.107874 
0.631947 0.770635 0.082249 
0.676420 0.733856 0.062549 
0.718522 0.693700 0.050069 
0.755736 0.653520 0.042122 
0.787841 0.614787 0.036640 
0.815345 0.578064 0.032487 
0.838907 0.543496 0.029098 
0.859150 0.511053 0.026201 
0.876599 0.480639 0.023654 
0.891687 0.452147 0.021379 
0.904758 0.425486 0.019329 
0.916091 0.400590 0.017473 
0.925908 0.377418 0.015792 
0.934397 0.355947 0.014273 
0.941716 0.336161 0.012906 
0.948004 0.318044 0.011686 
0.953387 0.301565 0.010605 
0.957979 0.286675 0.009657 
0.961887 0.273305 0.008832 
0.965206 0.261366 0.008123 
0.968023 0.250751 0.007518 
0.970415 0.241342 0.007008 
0.972451 0.233016 0.006580 
0.974189 0.225649 0.006224 
0.975679 0.219123 0.005933 
0.976963 0.213334 0.005696 
0.978073 0.208189 0.005508 
0.979036 0.203618 0.005363 
0.979868 0.199576 0.005257 
0.980581 0.196047 0.005188 
0.981174 0.193055 0.005155 
0.981641 0.190670 0.005158 
0.981959 0.189025 0.005197 
0.982091 0.188334 0.005271 
0.981978 0.188917 0.005374 
0.981529 0.191236 0.005494 
0.980600 0.195940 0.005602 
0.978972 0.203918 0.005641 
0.976298 0.216362 0.005513 
0.972028 0.234812 0.005054 
0.965288 0.261159 0.004010 
0.954714 0.297519 0.002015 
0.938282 0.345869 -0.001422 
0.913268 0.407300 -0.006918 
0.876646 0.480894 -0.015241 
0.826299 0.562562 -0.027445 
0.763225 0.644554 -0.045137 
0.694523 0.716035 -0.070217 
0.637962 0.763525 -0.100170 
0.584033 0.804829 0.105615 
0.621976 0.778891 0.080465 
0.666625 0.742884 0.061111 
0.709072 0.703443 0.048832 
0.746785 0.663800 0.041001 
0.779506 0.625383 0.035591 
0.807702 0.588749 0.031488 
0.831998 0.554065 0.028136 
0.852981 0.521330 0.025267 
0.871154 0.490483 0.022740 
0.886928 0.461454 0.020478 
0.900633 0.434189 0.018437 
0.912538 0.408655 0.016586 
0.922861 0.384845 0.014909 
0.931785 0.362763 0.013395 
0.939471 0.342416 0.012035 
0.946062 0.323803 0.010825 
0.951690 0.306904 0.009759 
0.956477 0.291674 0.008829 
0.960535 0.278043 0.008026 
0.963968 0.265916 0.007341 
0.966870 0.255178 0.006764 
0.969324 0.245705 0.006281 
0.971403 0.237363 0.005882 
0.973169 0.230022 0.005556 
0.974676 0.223561 0.005294 
0.975965 0.217869 0.005086 
0.977071 0.212856 0.004926 
0.978020 0.208456 0.004809 
0.978828 0.204629 0.004730 
0.979503 0.201374 0.004688 
0.980043 0.198732 0.004680 
0.980433 0.196799 0.004706 
0.980644 0.195743 0.004764 
0.980627 0.195826 0.004849 
0.980305 0.197427 0.004950 
0.979560 0.201088 0.005044 
0.978211 0.207551 0.005090 
0.975978 0.217812 0.005010 
0.972425 0.233168 0.004681 
0.966873 0.255227 0.003910 
0.958273 0.285845 0.002422 
0.945061 0.326894 -0.000149 
0.925073 0.379766 -0.004240 
0.895683 0.444573 -0.010334 
0.854437 0.519208 -0.018981 
0.800331 0.598758 -0.030978 
0.735554 0.675781 -0.047751 
0.667538 0.741161 -0.071222 
0.612768 0.783993 -0.099351 
0.575450 0.811238 0.103685 
0.613416 0.785804 0.078950 
0.658208 0.750450 0.059901 
0.700938 0.711619 0.047801 
0.739064 0.672442 0.040070 
0.772304 0.634303 0.034720 
0.801095 0.597751 0.030656 
0.826029 0.562965 0.027332 
0.847666 0.529966 0.024480 
0.866484 0.498722 0.021963 
0.882874 0.469197 0.019706 
0.897151 0.441371 0.017664 
0.909571 0.415247 0.015811 
0.920346 0.390849 0.014132 
0.929657 0.368210 0.012616 
0.937664 0.347360 0.011260 
0.944515 0.328314 0.010057 
0.950347 0.311062 0.009002 
0.955290 0.295560 0.008088 
0.959464 0.281735 0.007306 
0.962981 0.269487 0.006644 
0.965941 0.258692 0.006092 
0.968431 0.249216 0.005637 
0.970531 0.240919 0.005266 
0.972305 0.233662 0.004968 
0.973809 0.227319 0.004733 
0.975086 0.221779 0.004552 
0.976172 0.216952 0.004418 
0.977091 0.212777 0.004327 
0.977858 0.209226 0.004273 
0.978477 0.206310 0.004253 
0.978942 0.204092 0.004266 
0.979232 0.202697 0.004309 
0.979307 0.202332 0.004378 
0.979105 0.203305 0.004462 
0.978528 0.206062 0.004545 
0.977428 0.211219 0.004593 
0.975579 0.219603 0.004549 
0.972635 0.232298 0.004317 
0.968067 0.250664 0.003752 
0.961067 0.276304 0.002640 
0.950434 0.310925 0.000699 
0.934477 0.356014 -0.002407 
0.911037 0.412266 -0.007035 
0.877795 0.478846 -0.013527 
0.833033 0.552775 -0.022250 
0.776750 0.628898 -0.033847 
0.711849 0.700573 -0.049687 
0.645529 0.760355 -0.071788 
0.592839 0.799277 -0.098478 
0.568057 0.816640 0.102033 
0.606039 0.791635 0.077659 
0.650947 0.756836 0.058878 
0.693916 0.718525 0.046934 
0.732397 0.679743 0.039290 
0.766088 0.641837 0.033991 
0.795400 0.605344 0.029957 
0.820901 0.570449 0.026651 
0.843124 0.537191 0.023808 
0.862525 0.505566 0.021292 
0.879474 0.475565 0.019031 
0.894270 0.447205 0.016982 
0.907156 0.420522 0.015120 
0.918336 0.395574 0.013432 
0.927987 0.372423 0.011912 
0.936270 0.351123 0.010555 
0.943338 0.331702 0.009356 
0.949334 0.314157 0.008312 
0.954397 0.298448 0.007413 
0.958654 0.284496 0.006651 
0.962224 0.272192 0.006013 
0.965214 0.261404 0.005486 
0.967718 0.251987 0.005057 
0.969816 0.243790 0.004713 
0.971580 0.236672 0.004442 
0.973063 0.230500 0.004234 
0.974313 0.225162 0.004078 
0.975362 0.220574 0.003969 
0.976235 0.216679 0.003901 
0.976944 0.213461 0.003868 
0.977489 0.210949 0.003868 
0.977859 0.209228 0.003897 
0.978024 0.208455 0.003950 
0.977934 0.208877 0.004019 
0.977509 0.210854 0.004091 
0.976629 0.214892 0.004140 
0.975112 0.221675 0.004121 
0.972682 0.232106 0.003961 
0.968926 0.247326 0.003550 
0.963219 0.268705 0.002722 
0.954639 0.297764 0.001257 
0.941875 0.335961 -0.001115 
0.923199 0.384295 -0.004685 
0.896596 0.442743 -0.009714 
0.860205 0.509684 -0.016411 
0.813057 0.581647 -0.025016 
0.755904 0.653686 -0.036103 
0.691925 0.720161 -0.051069 
0.627772 0.775056 -0.072041 
0.577160 0.810776 -0.097613 
0.561665 0.821224 0.100614 
0.599657 0.796587 0.076556 
0.644665 0.762261 0.058009 
0.687844 0.724387 0.046202 
0.726638 0.685933 0.038633 
0.760731 0.648209 0.033376 
0.790513 0.611740 0.029364 
0.816529 0.576716 0.026068 
0.839289 0.543190 0.023226 
0.859225 0.511179 0.020704 
0.876687 0.480709 0.018432 
0.891956 0.451826 0.016368 
0.905263 0.424605 0.014491 
0.916802 0.399136 0.012791 
0.926749 0.375512 0.011262 
0.935266 0.353808 0.009902 
0.942509 0.334067 0.008708 
0.948631 0.316291 0.007673 
0.953777 0.300439 0.006790 
0.958084 0.286424 0.006048 
0.961678 0.274129 0.005434 
0.964672 0.263408 0.004932 
0.967165 0.254107 0.004530 
0.969243 0.246068 0.004213 
0.970977 0.239140 0.003968 
0.972424 0.233189 0.003784 
0.973630 0.228105 0.003653 
0.974628 0.223804 0.003566 
0.975439 0.220242 0.003518 
0.976073 0.217414 0.003504 
0.976527 0.215368 0.003519 
0.976780 0.214215 0.003558 
0.976795 0.214146 0.003614 
0.976509 0.215446 0.003676 
0.975823 0.218528 0.003722 
0.974592 0.223955 0.003720 
0.972597 0.232470 0.003614 
0.969510 0.245028 0.003318 
0.964849 0.262792 0.002705 
0.957902 0.287092 0.001602 
0.947657 0.319289 -0.000209 
0.932751 0.360509 -0.002972 
0.911508 0.411225 -0.006914 
0.882177 0.470759 -0.012202 
0.843414 0.536930 -0.018940 
0.794898 0.606129 -0.027292 
0.737851 0.673902 -0.037832 
0.675403 0.735611 -0.052022 
0.613547 0.786361 -0.072085 
0.564858 0.819491 -0.096796 
0.556118 0.825139 0.099392 
0.594119 0.800816 0.075609 
0.639218 0.766890 0.057268 
0.682587 0.729382 0.045580 
0.721668 0.691191 0.038077 
0.756131 0.653595 0.032853 
0.786349 0.617109 0.028857 
0.812843 0.581922 0.025564 
0.836102 0.548104 0.022716 
0.856536 0.515693 0.020181 
0.874473 0.484744 0.017889 
0.890178 0.455339 0.015805 
0.903865 0.427591 0.013909 
0.915723 0.401625 0.012192 
0.925923 0.377562 0.010652 
0.934630 0.355499 0.009288 
0.942008 0.335492 0.008097 
0.948217 0.317546 0.007073 
0.953410 0.301614 0.006206 
0.957735 0.287601 0.005486 
0.961324 0.275377 0.004895 
0.964297 0.264785 0.004420 
0.966759 0.255658 0.004045 
0.968797 0.247829 0.003754 
0.970483 0.241142 0.003535 
0.971878 0.235462 0.003375 
0.973025 0.230677 0.003267 
0.973956 0.226713 0.003200 
0.974691 0.223534 0.003170 
0.975235 0.221150 0.003171 
0.975578 0.219631 0.003196 
0.975694 0.219114 0.003240 
0.975534 0.219823 0.003291 
0.975021 0.222087 0.003335 
0.974037 0.226362 0.003344 
0.972408 0.233263 0.003276 
0.969876 0.243581 0.003065 
0.966063 0.258295 0.002613 
0.960419 0.278553 0.001786 
0.952163 0.305589 0.000407 
0.940227 0.340543 -0.001727 
0.923253 0.384163 -0.004821 
0.899705 0.436406 -0.009035 
0.868165 0.496065 -0.014452 
0.827787 0.560645 -0.021102 
0.778741 0.626669 -0.029124 
0.722462 0.690303 -0.039129 
0.661836 0.747797 -0.052655 
0.602203 0.795089 -0.072000 
0.555223 0.826137 -0.096052 
0.551290 0.828498 0.098339 
0.589301 0.804444 0.074796 
0.634488 0.770855 0.056634 
0.678038 0.733645 0.045052 
0.717392 0.695655 0.037603 
0.752205 0.658132 0.032407 
0.782836 0.621579 0.028420 
0.809784 0.586190 0.025123 
0.833518 0.552044 0.022261 
0.854423 0.519205 0.019706 
0.872805 0.487758 0.017390 
0.888911 0.457825 0.015279 
0.902942 0.429555 0.013358 
0.915078 0.403110 0.011621 
0.925489 0.378641 0.010069 
0.934345 0.356265 0.008701 
0.941816 0.336046 0.007513 
0.948072 0.317991 0.006501 
0.953277 0.302043 0.005653 
0.957588 0.288098 0.004955 
0.961145 0.276008 0.004391 
0.964074 0.265604 0.003943 
0.966483 0.256707 0.003595 
0.968462 0.249140 0.003330 
0.970085 0.242744 0.003136 
0.971412 0.237379 0.003000 
0.972487 0.232940 0.002912 
0.973338 0.229359 0.002864 
0.973981 0.226611 0.002849 
0.974418 0.224724 0.002861 
0.974633 0.223788 0.002892 
0.974591 0.223971 0.002934 
0.974232 0.225527 0.002973 
0.973463 0.228826 0.002988 
0.972144 0.234367 0.002947 
0.970071 0.242804 0.002799 
0.966950 0.254955 0.002468 
0.962351 0.271802 0.001849 
0.955671 0.294437 0.000803 
0.946075 0.323947 -0.000840 
0.932479 0.361210 -0.003261 
0.913591 0.406581 -0.006617 
0.888076 0.459565 -0.011005 
0.854870 0.518582 -0.016441 
0.813553 0.581039 -0.022913 
0.764612 0.643766 -0.030572 
0.709501 0.703564 -0.040084 
0.650775 0.757414 -0.053059 
0.593191 0.801850 -0.071843 
0.547690 0.831226 -0.095393 
0.547077 0.831393 0.097427 
0.585103 0.807567 0.074095 
0.630381 0.774257 0.056092 
0.674111 0.737282 0.044600 
0.713731 0.699432 0.037199 
0.748887 0.661924 0.032023 
0.779919 0.625252 0.028039 
0.807310 0.589609 0.024732 
0.831502 0.555092 0.021850 
0.852857 0.521789 0.019267 
0.871660 0.489818 0.016920 
0.888137 0.459342 0.014777 
0.902475 0.430551 0.012828 
0.914849 0.403644 0.011069 
0.925429 0.378802 0.009503 
0.934390 0.356159 0.008131 
0.941912 0.335787 0.006950 
0.948177 0.317686 0.005951 
0.953361 0.301790 0.005124 
0.957627 0.287977 0.004451 
0.961125 0.276085 0.003914 
0.963986 0.265928 0.003494 
0.966322 0.257315 0.003173 
0.968226 0.250061 0.002935 
0.969771 0.244000 0.002765 
0.971017 0.238997 0.002651 
0.972005 0.234947 0.002582 
0.972762 0.231792 0.002550 
0.973300 0.229521 0.002548 
0.973616 0.228179 0.002566 
0.973686 0.227880 0.002599 
0.973465 0.228819 0.002632 
0.972883 0.231283 0.002651 
0.971828 0.235677 0.002629 
0.970139 0.242535 0.002526 
0.967584 0.252539 0.002285 
0.963828 0.266518 0.001824 
0.958401 0.285423 0.001032 
0.950654 0.310254 -0.000229 
0.939727 0.341918 -0.002115 
0.924561 0.381005 -0.004775 
0.903975 0.427505 -0.008322 
0.876870 0.480557 -0.012796 
0.842516 0.538365 -0.018165 
0.800818 0.598410 -0.024406 
0.752427 0.657912 -0.031701 
0.698692 0.714260 -0.040777 
0.641813 0.765006 -0.053302 
0.586058 0.807095 -0.071654 
0.541820 0.835128 -0.094825 
0.543398 0.833894 0.096639 
0.581446 0.810259 0.073492 
0.626821 0.777175 0.055626 
0.670736 0.740377 0.044215 
0.710625 0.702605 0.036854 
0.746125 0.665052 0.031691 
0.777558 0.628200 0.027704 
0.805386 0.592249 0.024380 
0.830028 0.557308 0.021470 
0.851820 0.523495 0.018853 
0.871023 0.490967 0.016468 
0.887841 0.459929 0.014288 
0.902451 0.430616 0.012307 
0.915022 0.403266 0.010524 
0.925727 0.378087 0.008945 
0.934749 0.355228 0.007571 
0.942281 0.334763 0.006398 
0.948516 0.316683 0.005417 
0.953642 0.300908 0.004613 
0.957834 0.287295 0.003967 
0.961248 0.275664 0.003459 
0.964020 0.265813 0.003069 
0.966265 0.257536 0.002777 
0.968076 0.250642 0.002565 
0.969529 0.244963 0.002419 
0.970681 0.240361 0.002325 
0.971570 0.236741 0.002273 
0.972221 0.234054 0.002255 
0.972641 0.232302 0.002261 
0.972820 0.231551 0.002283 
0.972728 0.231937 0.002310 
0.972311 0.233681 0.002330 
0.971482 0.237102 0.002320 
0.970115 0.242635 0.002251 
0.968026 0.250841 0.002077 
0.964954 0.262414 0.001735 
0.960530 0.278173 0.001137 
0.954249 0.299013 0.000172 
0.945434 0.325812 -0.001291 
0.933227 0.359272 -0.003390 
0.916625 0.399699 -0.006241 
0.894598 0.446762 -0.009910 
0.866287 0.499340 -0.014394 
0.831244 0.555561 -0.019637 
0.789598 0.613090 -0.025621 
0.742042 0.669562 -0.032570 
0.689752 0.722868 -0.041272 
0.634595 0.770995 -0.053439 
0.580443 0.811159 -0.071461 
0.537273 0.838115 -0.094347 
0.540185 0.836058 0.095958 
0.578264 0.812580 0.072972 
0.623748 0.779672 0.055228 
0.667859 0.742993 0.043886 
0.708028 0.705237 0.036556 
0.743881 0.667574 0.031402 
0.775722 0.630479 0.027404 
0.803991 0.594154 0.024056 
0.829081 0.558730 0.021112 
0.851299 0.524355 0.018453 
0.870882 0.491231 0.016024 
0.888013 0.459611 0.013803 
0.902859 0.429776 0.011786 
0.915583 0.402004 0.009980 
0.926367 0.376529 0.008389 
0.935404 0.353510 0.007016 
0.942902 0.333018 0.005854 
0.949068 0.315032 0.004894 
0.954104 0.299448 0.004116 
0.958192 0.286104 0.003501 
0.961497 0.274797 0.003024 
0.964160 0.265308 0.002664 
0.966297 0.257419 0.002401 
0.968002 0.250931 0.002215 
0.969350 0.245674 0.002091 
0.970395 0.241514 0.002017 
0.971174 0.238361 0.001980 
0.971708 0.236179 0.001972 
0.971997 0.234985 0.001984 
0.972026 0.234864 0.002005 
0.971757 0.235976 0.002023 
0.971124 0.238567 0.002021 
0.970029 0.242983 0.001976 
0.968326 0.249682 0.001852 
0.965811 0.259242 0.001599 
0.962196 0.272357 0.001149 
0.957083 0.289813 0.000412 
0.949942 0.312425 -0.000720 
0.940086 0.340929 -0.002367 
0.926684 0.375813 -0.004643 
0.908820 0.417119 -0.007633 
0.885626 0.464260 -0.011363 
0.856468 0.515958 -0.015800 
0.821122 0.570371 -0.020877 
0.779841 0.625413 -0.026600 
0.733281 0.679113 -0.033236 
0.682418 0.729776 -0.041624 
0.628824 0.775705 -0.053507 
0.576059 0.814294 -0.071280 
0.533786 0.840384 -0.093955 
0.537383 0.837928 0.095369 
0.575506 0.814575 0.072525 
0.621114 0.781796 0.054888 
0.665439 0.745178 0.043605 
0.705906 0.707375 0.036300 
0.742128 0.669534 0.031147 
0.774392 0.632124 0.027132 
0.803113 0.595354 0.023752 
0.828652 0.559378 0.020765 
0.851290 0.524385 0.018057 
0.871233 0.490622 0.015578 
0.888647 0.458398 0.013311 
0.903687 0.428045 0.011258 
0.916520 0.399878 0.009428 
0.927334 0.374154 0.007828 
0.936339 0.351039 0.006459 
0.943758 0.330593 0.005314 
0.949817 0.312776 0.004379 
0.954728 0.297459 0.003632 
0.958685 0.284452 0.003049 
0.961859 0.273532 0.002606 
0.964394 0.264460 0.002278 
0.966407 0.257008 0.002043 
0.967993 0.250969 0.001883 
0.969224 0.246173 0.001781 
0.970152 0.242490 0.001723 
0.970811 0.239839 0.001700 
0.971216 0.238195 0.001699 
0.971363 0.237594 0.001713 
0.971230 0.238138 0.001728 
0.970769 0.240010 0.001731 
0.969905 0.243478 0.001703 
0.968525 0.248912 0.001615 
0.966467 0.256786 0.001429 
0.963506 0.267684 0.001091 
0.959331 0.282284 0.000530 
0.953522 0.301322 -0.000343 
0.945536 0.325514 -0.001630 
0.934693 0.355440 -0.003437 
0.920210 0.391382 -0.005854 
0.901277 0.433152 -0.008934 
0.877189 0.479978 -0.012674 
0.847506 0.530514 -0.017021 
0.812159 0.583024 -0.021913 
0.771456 0.635694 -0.027383 
0.725963 0.686906 -0.033744 
0.676453 0.735294 -0.041872 
0.624252 0.779386 -0.053534 
0.572679 0.816689 -0.071123 
0.531159 0.842082 -0.093643 
0.534952 0.839540 0.094863 
0.573132 0.816281 0.072143 
0.618885 0.783582 0.054598 
0.663446 0.746966 0.043365 
0.704236 0.709049 0.036079 
0.740852 0.670956 0.030919 
0.773561 0.633152 0.026879 
0.802747 0.595858 0.023459 
0.828743 0.559257 0.020421 
0.851793 0.523581 0.017657 
0.872076 0.489137 0.015121 
0.889739 0.456290 0.012805 
0.904929 0.425427 0.010715 
0.917819 0.396900 0.008863 
0.928611 0.370984 0.007258 
0.937534 0.347845 0.005898 
0.944830 0.327525 0.004775 
0.950742 0.309958 0.003869 
0.955497 0.294984 0.003157 
0.959297 0.282386 0.002610 
0.962319 0.271914 0.002202 
0.964709 0.263313 0.001907 
0.966584 0.256343 0.001701 
0.968040 0.250793 0.001566 
0.969144 0.246493 0.001484 
0.969945 0.243318 0.001442 
0.970474 0.241200 0.001428 
0.970741 0.240124 0.001433 
0.970736 0.240144 0.001444 
0.970429 0.241382 0.001450 
0.969764 0.244039 0.001433 
0.968655 0.248406 0.001372 
0.966975 0.254867 0.001237 
0.964547 0.263908 0.000984 
0.961127 0.276105 0.000557 
0.956385 0.292108 -0.000114 
0.949889 0.312585 -0.001117 
0.941091 0.338143 -0.002545 
0.929337 0.369205 -0.004485 
0.913908 0.405861 -0.007006 
0.894107 0.447739 -0.010133 
0.869381 0.493948 -0.013843 
0.839444 0.543146 -0.018072 
0.804327 0.593751 -0.022773 
0.764331 0.644216 -0.028009 
0.719911 0.693226 -0.034131 
0.671654 0.739670 -0.042049 
0.620681 0.782233 -0.053542 
0.570125 0.818484 -0.070996 
0.529235 0.843318 -0.093408 
0.532858 0.840919 0.094431 
0.571112 0.817724 0.071818 
0.617035 0.785056 0.054353 
0.661862 0.748382 0.043162 
0.703005 0.710279 0.035885 
0.740047 0.671854 0.030712 
0.773228 0.633569 0.026638 
0.802901 0.595662 0.023169 
0.829360 0.558354 0.020071 
0.852814 0.521930 0.017242 
0.873413 0.486760 0.014644 
0.891285 0.453278 0.012276 
0.906576 0.421921 0.010150 
0.919467 0.393080 0.008280 
0.930181 0.367041 0.006674 
0.938970 0.343959 0.005330 
0.946098 0.323853 0.004235 
0.951826 0.306621 0.003364 
0.956393 0.292069 0.002691 
0.960012 0.279949 0.002184 
0.962863 0.269985 0.001813 
0.965092 0.261905 0.001550 
0.966819 0.255460 0.001373 
0.968133 0.250435 0.001261 
0.969101 0.246662 0.001198 
0.969768 0.244025 0.001169 
0.970160 0.242464 0.001163 
0.970280 0.241982 0.001169 
0.970114 0.242647 0.001175 
0.969624 0.244599 0.001167 
0.968744 0.248058 0.001126 
0.967379 0.253332 0.001028 
0.965388 0.260816 0.000839 
0.962580 0.270996 0.000516 
0.958696 0.284434 0.000000 
0.953392 0.301735 -0.000779 
0.946229 0.323491 -0.001902 
0.936671 0.350194 -0.003451 
0.924100 0.382112 -0.005499 
0.907871 0.419172 -0.008089 
0.887399 0.460866 -0.011227 
0.862264 0.506241 -0.014875 
0.832292 0.554012 -0.018971 
0.797566 0.602774 -0.023485 
0.758347 0.651227 -0.028510 
0.714968 0.698309 -0.034430 
0.667849 0.743100 -0.042178 