# OOMMF: rectangular mesh v0.99 
# Segment count: 1 
# Begin: Segment 
# Begin: Header 
# Title: model.omf 
# Desc: 
# meshunit: unknown 
# xbase: 0 
# ybase: 0 
# zbase: 0 
# xstepsize: 1
# ystepsize: 1 
# zstepsize: 1 
# xnodes: 50 
# ynodes: 50 
# znodes: 4 
# xmin: -0.5 
# ymin: -0.5 
# zmin: -0.5 
# xmax: 49.500000 
# ymax: 49.500000 
# zmax: 3.500000 
# valueunit: Ms 
# valuemultiplier: 1 
# ValueRangeMaxMag:  1. 
# ValueRangeMinMag:  1e-8 
# End: Header 
# Begin: data text 
0.753238 0.639198 0.155109 
0.790437 0.597195 0.136263 
0.826695 0.549855 0.119309 
0.856838 0.504575 0.105983 
0.880883 0.463616 0.095428 
0.899919 0.427339 0.086764 
0.915073 0.395390 0.079424 
0.927265 0.367206 0.073074 
0.937193 0.342217 0.067505 
0.945376 0.319920 0.062577 
0.952196 0.299896 0.058184 
0.957937 0.281807 0.054244 
0.962809 0.265386 0.050692 
0.966971 0.250424 0.047476 
0.970545 0.236762 0.044558 
0.973625 0.224273 0.041905 
0.976285 0.212857 0.039493 
0.978586 0.202432 0.037299 
0.980578 0.192926 0.035306 
0.982304 0.184273 0.033499 
0.983801 0.176409 0.031863 
0.985101 0.169271 0.030383 
0.986233 0.162794 0.029046 
0.987220 0.156913 0.027838 
0.988085 0.151565 0.026746 
0.988847 0.146688 0.025757 
0.989523 0.142219 0.024859 
0.990126 0.138103 0.024039 
0.990669 0.134288 0.023289 
0.991161 0.130728 0.022598 
0.991610 0.127384 0.021960 
0.992024 0.124227 0.021369 
0.992405 0.121236 0.020822 
0.992757 0.118406 0.020318 
0.993080 0.115747 0.019860 
0.993371 0.113290 0.019454 
0.993626 0.111093 0.019111 
0.993836 0.109249 0.018845 
0.993987 0.107897 0.018677 
0.994059 0.107237 0.018627 
0.994024 0.107541 0.018717 
0.993842 0.109172 0.018949 
0.993454 0.112591 0.019277 
0.992782 0.118331 0.019530 
0.991727 0.126916 0.019250 
0.990194 0.138621 0.017340 
0.988166 0.152960 0.011455 
0.985826 0.167748 -0.002769 
0.983525 0.178058 -0.031217 
0.981318 0.178105 -0.072763 
0.728372 0.669829 0.144235 
0.766857 0.630658 0.119168 
0.806312 0.582994 0.099898 
0.839451 0.536482 0.086653 
0.865980 0.494100 0.077097 
0.887055 0.456377 0.069669 
0.903902 0.422994 0.063547 
0.917515 0.393401 0.058318 
0.928651 0.367040 0.053757 
0.937866 0.343415 0.049729 
0.945576 0.322114 0.046142 
0.952086 0.302804 0.042925 
0.957625 0.285223 0.040026 
0.962367 0.269167 0.037401 
0.966445 0.254476 0.035020 
0.969962 0.241029 0.032857 
0.973000 0.228727 0.030890 
0.975629 0.217489 0.029105 
0.977903 0.207243 0.027486 
0.979873 0.197920 0.026021 
0.981579 0.189454 0.024698 
0.983059 0.181777 0.023505 
0.984345 0.174821 0.022431 
0.985465 0.168515 0.021465 
0.986446 0.162789 0.020595 
0.987308 0.157575 0.019811 
0.988071 0.152807 0.019102 
0.988752 0.148423 0.018459 
0.989363 0.144367 0.017874 
0.989916 0.140589 0.017339 
0.990421 0.137048 0.016850 
0.990884 0.133715 0.016401 
0.991310 0.130570 0.015990 
0.991701 0.127612 0.015618 
0.992057 0.124858 0.015288 
0.992373 0.122351 0.015005 
0.992644 0.120166 0.014779 
0.992856 0.118423 0.014624 
0.992990 0.117300 0.014555 
0.993018 0.117055 0.014589 
0.992899 0.118044 0.014739 
0.992569 0.120755 0.014997 
0.991934 0.125830 0.015306 
0.990849 0.134083 0.015478 
0.989100 0.146474 0.015029 
0.986381 0.163977 0.012822 
0.982290 0.187258 0.006389 
0.976353 0.215997 -0.008973 
0.968027 0.247663 -0.039838 
0.957611 0.275192 -0.085147 
0.701527 0.699786 0.134759 
0.739763 0.664306 0.106993 
0.781190 0.618327 0.086111 
0.817137 0.571848 0.072647 
0.846453 0.528649 0.063615 
0.870026 0.489702 0.056979 
0.889039 0.454904 0.051692 
0.904518 0.423809 0.047252 
0.917259 0.395919 0.043410 
0.927860 0.370773 0.040029 
0.936770 0.347983 0.037020 
0.944320 0.327232 0.034323 
0.950764 0.308270 0.031891 
0.956293 0.290900 0.029691 
0.961053 0.274974 0.027696 
0.965161 0.260375 0.025885 
0.968710 0.247008 0.024241 
0.971779 0.234795 0.022753 
0.974431 0.223663 0.021407 
0.976725 0.213545 0.020193 
0.978707 0.204369 0.019103 
0.980424 0.196064 0.018125 
0.981912 0.188553 0.017250 
0.983205 0.181760 0.016467 
0.984334 0.175607 0.015768 
0.985324 0.170019 0.015143 
0.986199 0.164922 0.014584 
0.986976 0.160249 0.014081 
0.987673 0.155937 0.013629 
0.988302 0.151935 0.013222 
0.988874 0.148199 0.012854 
0.989396 0.144701 0.012523 
0.989873 0.141425 0.012227 
0.990307 0.138376 0.011969 
0.990696 0.135585 0.011751 
0.991033 0.133113 0.011579 
0.991307 0.131067 0.011463 
0.991500 0.129609 0.011414 
0.991581 0.128981 0.011446 
0.991508 0.129532 0.011569 
0.991213 0.131751 0.011787 
0.990591 0.136321 0.012077 
0.989476 0.144171 0.012354 
0.987594 0.156540 0.012391 
0.984496 0.175018 0.011642 
0.979447 0.201506 0.008875 
0.971281 0.237931 0.001499 
0.958332 0.285249 -0.015276 
0.939012 0.340552 -0.047750 
0.916096 0.389861 -0.093681 
0.676562 0.725264 0.127499 
0.714482 0.692587 0.099188 
0.756972 0.648801 0.077789 
0.794952 0.603260 0.064259 
0.826615 0.560024 0.055499 
0.852483 0.520426 0.049288 
0.873598 0.484613 0.044464 
0.890948 0.452299 0.040470 
0.905335 0.423081 0.037037 
0.917378 0.396560 0.034023 
0.927549 0.372386 0.031344 
0.936201 0.350271 0.028942 
0.943606 0.329984 0.026777 
0.949972 0.311347 0.024819 
0.955459 0.294222 0.023043 
0.960197 0.278501 0.021433 
0.964289 0.264098 0.019976 
0.967823 0.250939 0.018659 
0.970874 0.238954 0.017474 
0.973506 0.228074 0.016410 
0.975776 0.218224 0.015460 
0.977736 0.209328 0.014614 
0.979431 0.201303 0.013862 
0.980900 0.194065 0.013197 
0.982178 0.187528 0.012608 
0.983296 0.181610 0.012087 
0.984281 0.176229 0.011626 
0.985153 0.171312 0.011217 
0.985932 0.166793 0.010855 
0.986633 0.162617 0.010535 
0.987267 0.158741 0.010252 
0.987842 0.155138 0.010005 
0.988363 0.151798 0.009794 
0.988830 0.148739 0.009619 
0.989238 0.146008 0.009486 
0.989577 0.143695 0.009400 
0.989830 0.141943 0.009370 
0.989969 0.140974 0.009406 
0.989948 0.141110 0.009517 
0.989702 0.142817 0.009707 
0.989123 0.146752 0.009962 
0.988044 0.153834 0.010236 
0.986183 0.165333 0.010403 
0.983068 0.182957 0.010172 
0.977892 0.208921 0.008912 
0.969291 0.245860 0.005304 
0.955095 0.296283 -0.003251 
0.932403 0.360794 -0.021243 
0.899430 0.433716 -0.054008 
0.863297 0.495049 -0.098205 
0.654568 0.746113 0.121882 
0.692350 0.715427 0.093889 
0.735493 0.673632 0.072594 
0.774879 0.629332 0.059182 
0.808338 0.586538 0.050618 
0.836097 0.546761 0.044654 
0.859035 0.510345 0.040088 
0.878067 0.477155 0.036341 
0.893974 0.446892 0.033133 
0.907374 0.419229 0.030321 
0.918746 0.393867 0.027822 
0.928459 0.370553 0.025581 
0.936795 0.349084 0.023561 
0.943974 0.329303 0.021732 
0.950169 0.311089 0.020076 
0.955518 0.294348 0.018576 
0.960135 0.279004 0.017221 
0.964118 0.264990 0.016001 
0.967550 0.252238 0.014908 
0.970505 0.240678 0.013932 
0.973047 0.230236 0.013066 
0.975235 0.220827 0.012300 
0.977121 0.212364 0.011627 
0.978751 0.204754 0.011036 
0.980165 0.197904 0.010518 
0.981397 0.191724 0.010066 
0.982478 0.186126 0.009672 
0.983433 0.181031 0.009328 
0.984282 0.176371 0.009030 
0.985043 0.172088 0.008771 
0.985726 0.168141 0.008550 
0.986341 0.164506 0.008364 
0.986890 0.161186 0.008215 
0.987372 0.158212 0.008104 
0.987779 0.155653 0.008035 
0.988095 0.153633 0.008015 
0.988295 0.152345 0.008051 
0.988335 0.152077 0.008150 
0.988152 0.153250 0.008313 
0.987647 0.156465 0.008532 
0.986658 0.162569 0.008773 
0.984926 0.172742 0.008953 
0.982015 0.188595 0.008892 
0.977178 0.212262 0.008225 
0.969148 0.246399 0.006239 
0.955835 0.293899 0.001577 
0.934118 0.356870 -0.008211 
0.900443 0.434134 -0.027024 
0.854185 0.516607 -0.059033 
0.807338 0.581500 -0.100313 
0.635638 0.763012 0.117375 
0.673405 0.733778 0.089975 
0.717014 0.693632 0.069037 
0.757395 0.650564 0.055842 
0.792197 0.608417 0.047455 
0.821450 0.568757 0.041657 
0.845895 0.532047 0.037250 
0.866369 0.498269 0.033650 
0.883614 0.467218 0.030574 
0.898231 0.438638 0.027878 
0.910699 0.412283 0.025482 
0.921388 0.387942 0.023331 
0.930588 0.365442 0.021390 
0.938525 0.344652 0.019633 
0.945379 0.325472 0.018042 
0.951298 0.307825 0.016604 
0.956404 0.291647 0.015308 
0.960801 0.276877 0.014145 
0.964583 0.263455 0.013107 
0.967830 0.251311 0.012186 
0.970616 0.240365 0.011375 
0.973007 0.230530 0.010663 
0.975061 0.221711 0.010042 
0.976829 0.213808 0.009503 
0.978358 0.206721 0.009037 
0.979686 0.200351 0.008636 
0.980847 0.194606 0.008291 
0.981867 0.189402 0.007995 
0.982771 0.184667 0.007744 
0.983574 0.180346 0.007533 
0.984291 0.176399 0.007360 
0.984928 0.172812 0.007223 
0.985488 0.169597 0.007123 
0.985964 0.166806 0.007062 
0.986346 0.164537 0.007045 
0.986609 0.162952 0.007076 
0.986715 0.162301 0.007160 
0.986607 0.162954 0.007298 
0.986192 0.165439 0.007483 
0.985326 0.170508 0.007688 
0.983780 0.179207 0.007853 
0.981173 0.192973 0.007849 
0.976868 0.213716 0.007436 
0.969790 0.243862 0.006179 
0.958165 0.286198 0.003310 
0.939231 0.343278 -0.002483 
0.909294 0.415940 -0.013361 
0.865085 0.500571 -0.032513 
0.808187 0.585538 -0.063077 
0.754489 0.648479 -0.101099 
0.619492 0.776732 0.113652 
0.657299 0.748604 0.086888 
0.701265 0.709804 0.066379 
0.742378 0.667848 0.053432 
0.778193 0.626396 0.045207 
0.808618 0.587004 0.039538 
0.834290 0.550199 0.035241 
0.855975 0.516042 0.031736 
0.874372 0.484404 0.028745 
0.890061 0.455092 0.026122 
0.903507 0.427912 0.023788 
0.915079 0.402692 0.021690 
0.925064 0.379295 0.019795 
0.933693 0.357618 0.018080 
0.941150 0.337584 0.016527 
0.947588 0.319136 0.015124 
0.953136 0.302223 0.013864 
0.957907 0.286796 0.012736 
0.962000 0.272797 0.011736 
0.965505 0.260157 0.010853 
0.968504 0.248794 0.010081 
0.971068 0.238617 0.009409 
0.973264 0.229521 0.008829 
0.975147 0.221402 0.008331 
0.976769 0.214149 0.007905 
0.978172 0.207658 0.007544 
0.979393 0.201833 0.007238 
0.980462 0.196585 0.006983 
0.981403 0.191842 0.006771 
0.982233 0.187549 0.006600 
0.982966 0.183674 0.006466 
0.983607 0.180210 0.006369 
0.984157 0.177188 0.006310 
0.984605 0.174681 0.006291 
0.984933 0.172820 0.006315 
0.985108 0.171816 0.006384 
0.985078 0.171983 0.006499 
0.984763 0.173777 0.006654 
0.984034 0.177848 0.006828 
0.982695 0.185100 0.006972 
0.980423 0.196777 0.006993 
0.976693 0.214536 0.006715 
0.970632 0.240498 0.005842 
0.960811 0.277178 0.003885 
0.944982 0.327122 0.000074 
0.919942 0.391996 -0.006776 
0.882005 0.470878 -0.018453 
0.829039 0.557934 -0.037462 
0.765073 0.640529 -0.066224 
0.708136 0.698795 -0.101142 
0.605751 0.787941 0.110522 
0.643610 0.760690 0.084359 
0.687858 0.722994 0.064271 
0.729525 0.682008 0.051568 
0.766120 0.641224 0.043492 
0.797473 0.602162 0.037926 
0.824145 0.565374 0.033712 
0.846845 0.530977 0.030276 
0.866231 0.498896 0.027342 
0.882856 0.468991 0.024768 
0.897170 0.441114 0.022472 
0.909531 0.415134 0.020407 
0.920225 0.390950 0.018539 
0.929480 0.368487 0.016847 
0.937482 0.347696 0.015316 
0.944388 0.328539 0.013936 
0.950331 0.310981 0.012698 
0.955432 0.294983 0.011595 
0.959797 0.280492 0.010621 
0.963525 0.267440 0.009768 
0.966703 0.255743 0.009027 
0.969411 0.245300 0.008388 
0.971721 0.236003 0.007841 
0.973695 0.227737 0.007377 
0.975387 0.220387 0.006987 
0.976846 0.213841 0.006660 
0.978108 0.207998 0.006389 
0.979207 0.202768 0.006168 
0.980168 0.198079 0.005991 
0.981008 0.193879 0.005854 
0.981739 0.190144 0.005755 
0.982366 0.186881 0.005693 
0.982884 0.184138 0.005668 
0.983279 0.182017 0.005683 
0.983524 0.180687 0.005738 
0.983574 0.180411 0.005833 
0.983359 0.181575 0.005962 
0.982770 0.184730 0.006109 
0.981639 0.190647 0.006236 
0.979697 0.200383 0.006271 
0.976518 0.215351 0.006083 
0.971404 0.237369 0.005454 
0.963234 0.268634 0.004042 
0.950242 0.311510 0.001339 
0.929841 0.367946 -0.003374 
0.898730 0.438362 -0.011089 
0.853813 0.520062 -0.023202 
0.794541 0.605779 -0.041676 
0.726892 0.683322 -0.068544 
0.669345 0.736090 -0.100742 
0.594041 0.797170 0.107870 
0.631947 0.770635 0.082245 
0.676417 0.733858 0.062546 
0.718516 0.693706 0.050068 
0.755727 0.653531 0.042123 
0.787826 0.614806 0.036644 
0.815324 0.578093 0.032493 
0.838881 0.543537 0.029108 
0.859117 0.511107 0.026215 
0.876562 0.480707 0.023672 
0.891645 0.452229 0.021402 
0.904714 0.425580 0.019355 
0.916045 0.400693 0.017502 
0.925863 0.377528 0.015822 
0.934354 0.356059 0.014303 
0.941676 0.336271 0.012935 
0.947969 0.318148 0.011712 
0.953357 0.301657 0.010628 
0.957956 0.286753 0.009675 
0.961869 0.273366 0.008846 
0.965194 0.261407 0.008131 
0.968017 0.250772 0.007521 
0.970414 0.241344 0.007005 
0.972455 0.232999 0.006572 
0.974197 0.225614 0.006212 
0.975690 0.219075 0.005917 
0.976976 0.213273 0.005677 
0.978088 0.208120 0.005487 
0.979051 0.203544 0.005341 
0.979884 0.199500 0.005234 
0.980596 0.195973 0.005166 
0.981188 0.192986 0.005134 
0.981653 0.190609 0.005139 
0.981968 0.188976 0.005180 
0.982098 0.188300 0.005257 
0.981982 0.188900 0.005364 
0.981528 0.191238 0.005489 
0.980595 0.195964 0.005601 
0.978962 0.203966 0.005645 
0.976281 0.216435 0.005522 
0.972003 0.234912 0.005068 
0.965253 0.261287 0.004029 
0.954665 0.297675 0.002039 
0.938215 0.346049 -0.001393 
0.913180 0.407497 -0.006883 
0.876535 0.481098 -0.015200 
0.826167 0.562758 -0.027395 
0.763079 0.644731 -0.045076 
0.694373 0.716189 -0.070141 
0.637814 0.763661 -0.100078 
0.584033 0.804830 0.105611 
0.621974 0.778893 0.080462 
0.666621 0.742888 0.061108 
0.709064 0.703451 0.048832 
0.746772 0.663815 0.041002 
0.779487 0.625406 0.035596 
0.807677 0.588783 0.031496 
0.831966 0.554112 0.028148 
0.852943 0.521391 0.025283 
0.871111 0.490558 0.022760 
0.886881 0.461544 0.020503 
0.900584 0.434290 0.018465 
0.912488 0.408767 0.016617 
0.922811 0.384962 0.014941 
0.931739 0.362882 0.013426 
0.939429 0.342532 0.012065 
0.946025 0.323911 0.010852 
0.951659 0.306999 0.009782 
0.956453 0.291753 0.008847 
0.960518 0.278103 0.008039 
0.963957 0.265955 0.007348 
0.966866 0.255196 0.006765 
0.969325 0.245702 0.006276 
0.971409 0.237340 0.005872 
0.973179 0.229982 0.005542 
0.974688 0.223506 0.005276 
0.975980 0.217802 0.005065 
0.977088 0.212781 0.004904 
0.978037 0.208376 0.004785 
0.978845 0.204549 0.004707 
0.979519 0.201297 0.004665 
0.980057 0.198661 0.004659 
0.980445 0.196738 0.004687 
0.980653 0.195695 0.004748 
0.980633 0.195794 0.004836 
0.980308 0.197414 0.004941 
0.979559 0.201096 0.005040 
0.978204 0.207583 0.005090 
0.975965 0.217870 0.005015 
0.972405 0.233254 0.004692 
0.966843 0.255342 0.003926 
0.958230 0.285989 0.002443 
0.945002 0.327065 -0.000123 
0.924994 0.379958 -0.004209 
0.895582 0.444777 -0.010299 
0.854315 0.519411 -0.018941 
0.800192 0.598946 -0.030932 
0.735407 0.675945 -0.047696 
0.667393 0.741298 -0.071156 
0.612627 0.784113 -0.099271 
0.575447 0.811240 0.103682 
0.613412 0.785807 0.078948 
0.658200 0.750456 0.059900 
0.700926 0.711630 0.047801 
0.739047 0.672461 0.040073 
0.772281 0.634331 0.034726 
0.801065 0.597791 0.030666 
0.825992 0.563018 0.027346 
0.847623 0.530033 0.024498 
0.866435 0.498805 0.021985 
0.882821 0.469295 0.019732 
0.897096 0.441481 0.017694 
0.909516 0.415366 0.015843 
0.920293 0.390973 0.014165 
0.929607 0.368335 0.012649 
0.937619 0.347480 0.011290 
0.944476 0.328425 0.010084 
0.950315 0.311158 0.009024 
0.955266 0.295638 0.008105 
0.959447 0.281793 0.007317 
0.962971 0.269523 0.006650 
0.965937 0.258706 0.006092 
0.968434 0.249208 0.005631 
0.970538 0.240890 0.005254 
0.972316 0.233616 0.004952 
0.973823 0.227257 0.004714 
0.975103 0.221706 0.004530 
0.976190 0.216871 0.004395 
0.977110 0.212693 0.004302 
0.977876 0.209142 0.004248 
0.978494 0.206230 0.004230 
0.978958 0.204020 0.004245 
0.979245 0.202636 0.004290 
0.979317 0.202285 0.004361 
0.979111 0.203277 0.004449 
0.978530 0.206055 0.004537 
0.977425 0.211234 0.004589 
0.975569 0.219645 0.004550 
0.972618 0.232368 0.004324 
0.968041 0.250764 0.003764 
0.961029 0.276434 0.002658 
0.950382 0.311084 0.000723 
0.934408 0.356198 -0.002379 
0.910946 0.412467 -0.007004 
0.877683 0.479053 -0.013492 
0.832902 0.552974 -0.022211 
0.776608 0.629076 -0.033803 
0.711705 0.700723 -0.049637 
0.645390 0.760478 -0.071729 
0.592708 0.799383 -0.098408 
0.568052 0.816643 0.102031 
0.606032 0.791640 0.077658 
0.650937 0.756845 0.058878 
0.693901 0.718539 0.046936 
0.732376 0.679766 0.039294 
0.766060 0.641870 0.033999 
0.795365 0.605389 0.029969 
0.820859 0.570508 0.026667 
0.843076 0.537266 0.023828 
0.862472 0.505656 0.021317 
0.879417 0.475671 0.019059 
0.894211 0.447323 0.017013 
0.907097 0.420649 0.015153 
0.918279 0.395705 0.013466 
0.927934 0.372554 0.011945 
0.936223 0.351247 0.010585 
0.943298 0.331815 0.009384 
0.949302 0.314255 0.008334 
0.954373 0.298526 0.007430 
0.958637 0.284552 0.006662 
0.962215 0.272225 0.006017 
0.965211 0.261413 0.005484 
0.967721 0.251973 0.005050 
0.969825 0.243756 0.004701 
0.971592 0.236619 0.004425 
0.973079 0.230432 0.004213 
0.974331 0.225084 0.004055 
0.975382 0.220488 0.003944 
0.976255 0.216590 0.003875 
0.976963 0.213373 0.003843 
0.977507 0.210866 0.003844 
0.977875 0.209155 0.003874 
0.978037 0.208395 0.003930 
0.977943 0.208833 0.004004 
0.977514 0.210830 0.004080 
0.976629 0.214890 0.004133 
0.975106 0.221700 0.004119 
0.972670 0.232159 0.003965 
0.968905 0.247408 0.003559 
0.963187 0.268818 0.002737 
0.954594 0.297908 0.001278 
0.941814 0.336133 -0.001090 
0.923118 0.384489 -0.004655 
0.896494 0.442949 -0.009681 
0.860084 0.509890 -0.016376 
0.812921 0.581839 -0.024978 
0.755762 0.653853 -0.036062 
0.691785 0.720299 -0.051023 
0.627641 0.775167 -0.071988 
0.577037 0.810871 -0.097551 
0.561658 0.821229 0.100613 
0.599647 0.796594 0.076555 
0.644652 0.762272 0.058010 
0.687824 0.724405 0.046205 
0.726612 0.685960 0.038638 
0.760698 0.648247 0.033385 
0.790473 0.611792 0.029377 
0.816481 0.576782 0.026086 
0.839235 0.543272 0.023248 
0.859165 0.511278 0.020731 
0.876624 0.480822 0.018462 
0.891892 0.451951 0.016401 
0.905200 0.424738 0.014526 
0.916742 0.399273 0.012826 
0.926694 0.375647 0.011296 
0.935217 0.353935 0.009933 
0.942468 0.334181 0.008734 
0.948599 0.316388 0.007695 
0.953753 0.300515 0.006806 
0.958068 0.286477 0.006057 
0.961670 0.274156 0.005436 
0.964671 0.263411 0.004929 
0.967171 0.254087 0.004521 
0.969254 0.246027 0.004198 
0.970992 0.239081 0.003949 
0.972442 0.233116 0.003762 
0.973650 0.228020 0.003628 
0.974648 0.223714 0.003540 
0.975460 0.220149 0.003492 
0.976093 0.217323 0.003478 
0.976545 0.215284 0.003494 
0.976796 0.214142 0.003536 
0.976808 0.214087 0.003595 
0.976518 0.215406 0.003660 
0.975828 0.218510 0.003712 
0.974591 0.223961 0.003714 
0.972589 0.232504 0.003614 
0.969494 0.245092 0.003323 
0.964823 0.262887 0.002716 
0.957864 0.287218 0.001618 
0.947605 0.319446 -0.000187 
0.932680 0.360692 -0.002945 
0.911417 0.411426 -0.006883 
0.882067 0.470967 -0.012169 
0.843286 0.537132 -0.018905 
0.794759 0.606312 -0.027255 
0.737711 0.674058 -0.037793 
0.675269 0.735737 -0.051980 
0.613423 0.786462 -0.072037 
0.564744 0.819577 -0.096741 
0.556108 0.825146 0.099392 
0.594106 0.800826 0.075610 
0.639201 0.766905 0.057270 
0.682564 0.729403 0.045584 
0.721638 0.691222 0.038083 
0.756093 0.653638 0.032864 
0.786303 0.617166 0.028872 
0.812789 0.581996 0.025583 
0.836042 0.548194 0.022739 
0.856471 0.515799 0.020209 
0.874406 0.484865 0.017922 
0.890109 0.455472 0.015840 
0.903798 0.427732 0.013945 
0.915660 0.401768 0.012228 
0.925866 0.377701 0.010686 
0.934581 0.355629 0.009319 
0.941967 0.335607 0.008123 
0.948184 0.317642 0.007093 
0.953387 0.301687 0.006221 
0.957720 0.287649 0.005493 
0.961317 0.275399 0.004896 
0.964298 0.264782 0.004415 
0.966766 0.255631 0.004034 
0.968809 0.247781 0.003738 
0.970500 0.241077 0.003514 
0.971897 0.235382 0.003352 
0.973046 0.230587 0.003241 
0.973979 0.226618 0.003174 
0.974713 0.223438 0.003143 
0.975256 0.221057 0.003145 
0.975597 0.219546 0.003172 
0.975710 0.219042 0.003218 
0.975547 0.219767 0.003273 
0.975029 0.222051 0.003320 
0.974040 0.226350 0.003334 
0.972405 0.233278 0.003271 
0.969865 0.243625 0.003066 
0.966042 0.258370 0.002620 
0.960388 0.278661 0.001799 
0.952119 0.305729 0.000425 
0.940166 0.340712 -0.001704 
0.923173 0.384355 -0.004793 
0.899605 0.436611 -0.009004 
0.868048 0.496272 -0.014419 
0.827656 0.560841 -0.021067 
0.778603 0.626843 -0.029088 
0.722325 0.690448 -0.039092 
0.661708 0.747913 -0.052616 
0.602087 0.795182 -0.071956 
0.555115 0.826215 -0.096002 
0.551276 0.828507 0.098339 
0.589284 0.804456 0.074797 
0.634467 0.770872 0.056637 
0.678011 0.733670 0.045057 
0.717357 0.695690 0.037612 
0.752162 0.658180 0.032419 
0.782784 0.621643 0.028436 
0.809726 0.586270 0.025144 
0.833453 0.552141 0.022287 
0.854353 0.519319 0.019736 
0.872733 0.487887 0.017424 
0.888838 0.457965 0.015315 
0.902872 0.429702 0.013395 
0.915012 0.403258 0.011658 
0.925430 0.378783 0.010103 
0.934294 0.356396 0.008731 
0.941774 0.336161 0.007539 
0.948040 0.318084 0.006521 
0.953255 0.302113 0.005666 
0.957575 0.288141 0.004961 
0.961141 0.276025 0.004390 
0.964077 0.265595 0.003936 
0.966491 0.256674 0.003582 
0.968476 0.249086 0.003312 
0.970104 0.242672 0.003114 
0.971433 0.237294 0.002975 
0.972509 0.232846 0.002885 
0.973361 0.229260 0.002836 
0.974004 0.226512 0.002821 
0.974440 0.224630 0.002834 
0.974653 0.223704 0.002867 
0.974608 0.223901 0.002912 
0.974244 0.225475 0.002955 
0.973470 0.228796 0.002975 
0.972145 0.234363 0.002939 
0.970065 0.242827 0.002796 
0.966935 0.255010 0.002471 
0.962327 0.271890 0.001858 
0.955634 0.294557 0.000818 
0.946023 0.324099 -0.000820 
0.932410 0.361388 -0.003236 
0.913503 0.406779 -0.006588 
0.887969 0.459772 -0.010973 
0.854747 0.518785 -0.016408 
0.813419 0.581228 -0.022879 
0.764475 0.643930 -0.030538 
0.709369 0.703698 -0.040049 
0.650654 0.757521 -0.053022 
0.593081 0.801935 -0.071803 
0.547589 0.831297 -0.095348 
0.547061 0.831404 0.097429 
0.585083 0.807581 0.074098 
0.630356 0.774277 0.056096 
0.674079 0.737311 0.044607 
0.713691 0.699472 0.037209 
0.748838 0.661978 0.032037 
0.779863 0.625321 0.028057 
0.807246 0.589696 0.024755 
0.831431 0.555197 0.021878 
0.852782 0.521910 0.019299 
0.871583 0.489954 0.016955 
0.888060 0.459488 0.014815 
0.902402 0.430703 0.012866 
0.914782 0.403796 0.011106 
0.925369 0.378947 0.009537 
0.934339 0.356291 0.008161 
0.941872 0.335900 0.006974 
0.948147 0.317776 0.005969 
0.953340 0.301855 0.005135 
0.957616 0.288015 0.004455 
0.961122 0.276095 0.003911 
0.963991 0.265912 0.003485 
0.966333 0.257275 0.003159 
0.968242 0.250000 0.002916 
0.969791 0.243922 0.002742 
0.971039 0.238906 0.002625 
0.972029 0.234848 0.002555 
0.972786 0.231690 0.002522 
0.973324 0.229420 0.002520 
0.973638 0.228085 0.002540 
0.973705 0.227798 0.002574 
0.973481 0.228752 0.002611 
0.972894 0.231236 0.002634 
0.971834 0.235654 0.002616 
0.970138 0.242539 0.002519 
0.967575 0.252573 0.002284 
0.963810 0.266584 0.001829 
0.958372 0.285522 0.001043 
0.950611 0.310386 -0.000212 
0.939669 0.342080 -0.002093 
0.924484 0.381191 -0.004749 
0.903880 0.427707 -0.008293 
0.876758 0.480763 -0.012764 
0.842390 0.538563 -0.018132 
0.800685 0.598590 -0.024373 
0.752294 0.658066 -0.031667 
0.698565 0.714385 -0.040744 
0.641698 0.765105 -0.053268 
0.585955 0.807173 -0.071617 
0.541726 0.835194 -0.094783 
0.543378 0.833907 0.096641 
0.581422 0.810276 0.073495 
0.626791 0.777199 0.055631 
0.670699 0.740410 0.044223 
0.710580 0.702650 0.036864 
0.746071 0.665111 0.031706 
0.777496 0.628276 0.027723 
0.805316 0.592343 0.024404 
0.829952 0.557420 0.021499 
0.851740 0.523624 0.018886 
0.870941 0.491110 0.016504 
0.887761 0.460081 0.014327 
0.902376 0.430773 0.012345 
0.914953 0.403421 0.010562 
0.925667 0.378233 0.008979 
0.934699 0.355360 0.007600 
0.942241 0.334874 0.006421 
0.948487 0.316770 0.005433 
0.953623 0.300967 0.004622 
0.957824 0.287327 0.003969 
0.961247 0.275667 0.003454 
0.964026 0.265789 0.003058 
0.966277 0.257489 0.002760 
0.968094 0.250575 0.002544 
0.969551 0.244879 0.002394 
0.970705 0.240265 0.002298 
0.971595 0.236639 0.002245 
0.972246 0.233949 0.002226 
0.972665 0.232200 0.002232 
0.972843 0.231457 0.002256 
0.972747 0.231856 0.002286 
0.972326 0.233617 0.002309 
0.971492 0.237061 0.002304 
0.970119 0.242619 0.002239 
0.968023 0.250853 0.002071 
0.964942 0.262458 0.001735 
0.960508 0.278250 0.001143 
0.954214 0.299124 0.000184 
0.945385 0.325955 -0.001274 
0.933161 0.359443 -0.003367 
0.916542 0.399890 -0.006214 
0.894497 0.446965 -0.009880 
0.866170 0.499543 -0.014362 
0.831116 0.555753 -0.019604 
0.789466 0.613261 -0.025588 
0.741913 0.669707 -0.032538 
0.689631 0.722985 -0.041241 
0.634486 0.771087 -0.053407 
0.580346 0.811231 -0.071426 
0.537184 0.838176 -0.094308 
0.540161 0.836073 0.095960 
0.578236 0.812599 0.072976 
0.623714 0.779699 0.055234 
0.667817 0.743030 0.043894 
0.707978 0.705287 0.036568 
0.743822 0.667639 0.031418 
0.775655 0.630562 0.027425 
0.803916 0.594255 0.024082 
0.829000 0.558849 0.021142 
0.851215 0.524491 0.018488 
0.870797 0.491381 0.016061 
0.887931 0.459769 0.013842 
0.902781 0.429937 0.011825 
0.915514 0.402162 0.010017 
0.926307 0.376676 0.008423 
0.935355 0.353640 0.007044 
0.942864 0.333126 0.005876 
0.949041 0.315114 0.004909 
0.954087 0.299502 0.004124 
0.958185 0.286129 0.003501 
0.961499 0.274793 0.003018 
0.964169 0.265277 0.002652 
0.966311 0.257365 0.002383 
0.968022 0.250857 0.002193 
0.969373 0.245585 0.002066 
0.970420 0.241413 0.001989 
0.971201 0.238255 0.001951 
0.971734 0.236072 0.001943 
0.972022 0.234883 0.001955 
0.972048 0.234772 0.001978 
0.971776 0.235898 0.001999 
0.971138 0.238508 0.002001 
0.970038 0.242947 0.001961 
0.968328 0.249673 0.001842 
0.965805 0.259263 0.001594 
0.962180 0.272411 0.001150 
0.957057 0.289901 0.000420 
0.949902 0.312547 -0.000706 
0.940031 0.341081 -0.002347 
0.926612 0.375991 -0.004619 
0.908730 0.417314 -0.007605 
0.885520 0.464463 -0.011333 
0.856349 0.516157 -0.015768 
0.820994 0.570556 -0.020844 
0.779711 0.625576 -0.026567 
0.733156 0.679249 -0.033205 
0.682303 0.729886 -0.041593 
0.628720 0.775790 -0.053476 
0.575968 0.814362 -0.071247 
0.533703 0.840441 -0.093918 
0.537356 0.837945 0.095372 
0.575474 0.814597 0.072530 
0.621076 0.781826 0.054895 
0.665393 0.745218 0.043614 
0.705851 0.707429 0.036314 
0.742064 0.669604 0.031164 
0.774320 0.632212 0.027154 
0.803032 0.595461 0.023779 
0.828567 0.559504 0.020797 
0.851201 0.524527 0.018093 
0.871145 0.490778 0.015617 
0.888562 0.458561 0.013351 
0.903609 0.428209 0.011298 
0.916450 0.400037 0.009465 
0.927274 0.374300 0.007861 
0.936291 0.351166 0.006486 
0.943722 0.330697 0.005334 
0.949792 0.312852 0.004392 
0.954713 0.297506 0.003637 
0.958680 0.284470 0.003047 
0.961863 0.273521 0.002597 
0.964404 0.264422 0.002263 
0.966423 0.256947 0.002023 
0.968014 0.250889 0.001859 
0.969248 0.246078 0.001754 
0.970179 0.242385 0.001695 
0.970838 0.239730 0.001670 
0.971242 0.238087 0.001670 
0.971388 0.237492 0.001684 
0.971252 0.238048 0.001702 
0.970787 0.239935 0.001708 
0.969918 0.243425 0.001684 
0.968532 0.248884 0.001601 
0.966467 0.256786 0.001421 
0.963497 0.267716 0.001089 
0.959312 0.282349 0.000534 
0.953491 0.301421 -0.000333 
0.945491 0.325645 -0.001615 
0.934632 0.355600 -0.003416 
0.920132 0.391565 -0.005829 
0.901182 0.433349 -0.008905 
0.877079 0.480179 -0.012643 
0.847384 0.530708 -0.016989 
0.812033 0.583202 -0.021881 
0.771329 0.635848 -0.027352 
0.725843 0.687034 -0.033713 
0.676343 0.735397 -0.041843 
0.624155 0.779467 -0.053505 
0.572593 0.816752 -0.071092 
0.531081 0.842135 -0.093609 
0.534921 0.839559 0.094867 
0.573096 0.816306 0.072148 
0.618842 0.783615 0.054606 
0.663395 0.747011 0.043376 
0.704176 0.709108 0.036093 
0.740782 0.671032 0.030937 
0.773482 0.633247 0.026902 
0.802662 0.595972 0.023488 
0.828653 0.559389 0.020455 
0.851700 0.523730 0.017694 
0.871985 0.489298 0.015161 
0.889652 0.456458 0.012845 
0.904850 0.425594 0.010754 
0.917750 0.397060 0.008900 
0.928553 0.371130 0.007289 
0.937487 0.347969 0.005924 
0.944796 0.327624 0.004793 
0.950719 0.310028 0.003880 
0.955485 0.295024 0.003160 
0.959295 0.282396 0.002607 
0.962325 0.271895 0.002192 
0.964721 0.263268 0.001891 
0.966602 0.256275 0.001680 
0.968062 0.250707 0.001541 
0.969169 0.246393 0.001456 
0.969972 0.243211 0.001412 
0.970502 0.241089 0.001398 
0.970768 0.240016 0.001403 
0.970761 0.240044 0.001416 
0.970451 0.241294 0.001424 
0.969782 0.243969 0.001411 
0.968667 0.248358 0.001355 
0.966981 0.254846 0.001224 
0.964545 0.263917 0.000977 
0.961115 0.276146 0.000556 
0.956363 0.292183 -0.000110 
0.949853 0.312694 -0.001106 
0.941041 0.338284 -0.002528 
0.929271 0.369372 -0.004463 
0.913825 0.406048 -0.006980 
0.894008 0.447937 -0.010104 
0.869269 0.494146 -0.013811 
0.839323 0.543334 -0.018040 
0.804202 0.593921 -0.022741 
0.764208 0.644362 -0.027978 
0.719796 0.693347 -0.034102 
0.671550 0.739767 -0.042021 
0.620589 0.782308 -0.053514 
0.570044 0.818543 -0.070967 
0.529162 0.843368 -0.093375 
0.532824 0.840940 0.094435 
0.571073 0.817751 0.071824 
0.616988 0.785093 0.054362 
0.661806 0.748431 0.043173 
0.702940 0.710342 0.035901 
0.739972 0.671935 0.030731 
0.773144 0.633669 0.026663 
0.802811 0.595783 0.023199 
0.829265 0.558493 0.020106 
0.852718 0.522085 0.017280 
0.873319 0.486927 0.014684 
0.891197 0.453450 0.012317 
0.906496 0.422091 0.010189 
0.919398 0.393240 0.008315 
0.930124 0.367184 0.006704 
0.938925 0.344080 0.005354 
0.946066 0.323946 0.004251 
0.951805 0.306684 0.003373 
0.956383 0.292102 0.002692 
0.960012 0.279951 0.002178 
0.962870 0.269958 0.001800 
0.965107 0.261853 0.001532 
0.966838 0.255386 0.001351 
0.968156 0.250344 0.001235 
0.969127 0.246558 0.001169 
0.969796 0.243914 0.001139 
0.970188 0.242352 0.001133 
0.970307 0.241874 0.001140 
0.970139 0.242548 0.001147 
0.969645 0.244515 0.001142 
0.968761 0.247994 0.001105 
0.967389 0.253291 0.001011 
0.965392 0.260803 0.000828 
0.962575 0.271015 0.000510 
0.958680 0.284485 0.000000 
0.953365 0.301820 -0.000773 
0.946189 0.323609 -0.001890 
0.936616 0.350342 -0.003433 
0.924028 0.382285 -0.005476 
0.907783 0.419362 -0.008062 
0.887297 0.461063 -0.011197 
0.862150 0.506435 -0.014843 
0.832172 0.554195 -0.018939 
0.797444 0.602937 -0.023453 
0.758229 0.651366 -0.028479 
0.714858 0.698423 -0.034401 
0.667750 0.743191 -0.042151 