# OOMMF: rectangular mesh v0.99 
# Segment count: 1 
# Begin: Segment 
# Begin: Header 
# Title: model.omf 
# Desc: 
# meshunit: unknown 
# xbase: 0 
# ybase: 0 
# zbase: 0 
# xstepsize: 1
# ystepsize: 1 
# zstepsize: 1 
# xnodes: 50 
# ynodes: 50 
# znodes: 4 
# xmin: -0.5 
# ymin: -0.5 
# zmin: -0.5 
# xmax: 49.500000 
# ymax: 49.500000 
# zmax: 3.500000 
# valueunit: Ms 
# valuemultiplier: 1 
# ValueRangeMaxMag:  1. 
# ValueRangeMinMag:  1e-8 
# End: Header 
# Begin: data text 
0.753236 0.639199 0.155113 
0.790435 0.597196 0.136267 
0.826694 0.549856 0.119313 
0.856837 0.504576 0.105986 
0.880882 0.463617 0.095431 
0.899918 0.427339 0.086766 
0.915074 0.395389 0.079425 
0.927266 0.367202 0.073073 
0.937195 0.342211 0.067503 
0.945379 0.319911 0.062573 
0.952200 0.299884 0.058178 
0.957941 0.281792 0.054236 
0.962814 0.265368 0.050682 
0.966977 0.250405 0.047466 
0.970551 0.236741 0.044547 
0.973631 0.224251 0.041894 
0.976290 0.212835 0.039482 
0.978590 0.202412 0.037288 
0.980582 0.192908 0.035297 
0.982307 0.184257 0.033492 
0.983803 0.176397 0.031857 
0.985103 0.169262 0.030379 
0.986233 0.162789 0.029045 
0.987220 0.156912 0.027839 
0.988085 0.151569 0.026749 
0.988846 0.146694 0.025761 
0.989521 0.142229 0.024864 
0.990124 0.138116 0.024046 
0.990666 0.134303 0.023296 
0.991158 0.130744 0.022606 
0.991608 0.127401 0.021969 
0.992022 0.124243 0.021378 
0.992403 0.121252 0.020830 
0.992755 0.118421 0.020326 
0.993079 0.115760 0.019868 
0.993370 0.113300 0.019461 
0.993625 0.111100 0.019116 
0.993835 0.109253 0.018850 
0.993986 0.107898 0.018680 
0.994059 0.107234 0.018629 
0.994025 0.107534 0.018717 
0.993844 0.109161 0.018946 
0.993456 0.112574 0.019271 
0.992785 0.118309 0.019520 
0.991731 0.126886 0.019233 
0.990200 0.138581 0.017313 
0.988175 0.152907 0.011413 
0.985838 0.167677 -0.002832 
0.983539 0.177964 -0.031306 
0.981331 0.177987 -0.072875 
0.728370 0.669830 0.144239 
0.766856 0.630659 0.119171 
0.806310 0.582995 0.099901 
0.839450 0.536483 0.086656 
0.865979 0.494101 0.077099 
0.887055 0.456376 0.069670 
0.903902 0.422992 0.063548 
0.917517 0.393397 0.058317 
0.928653 0.367033 0.053755 
0.937870 0.343405 0.049726 
0.945580 0.322101 0.046136 
0.952091 0.302788 0.042918 
0.957631 0.285204 0.040017 
0.962374 0.269145 0.037392 
0.966451 0.254453 0.035010 
0.969968 0.241005 0.032846 
0.973006 0.228703 0.030880 
0.975634 0.217467 0.029096 
0.977908 0.207222 0.027478 
0.979876 0.197902 0.026015 
0.981582 0.189440 0.024693 
0.983061 0.181768 0.023502 
0.984346 0.174816 0.022430 
0.985465 0.168514 0.021466 
0.986445 0.162793 0.020597 
0.987307 0.157583 0.019814 
0.988070 0.152819 0.019107 
0.988749 0.148437 0.018465 
0.989360 0.144383 0.017881 
0.989914 0.140606 0.017347 
0.990418 0.137066 0.016858 
0.990882 0.133733 0.016409 
0.991308 0.130587 0.015998 
0.991699 0.127628 0.015625 
0.992055 0.124872 0.015295 
0.992372 0.122362 0.015011 
0.992643 0.120173 0.014784 
0.992855 0.118427 0.014628 
0.992990 0.117301 0.014557 
0.993019 0.117051 0.014590 
0.992900 0.118036 0.014738 
0.992571 0.120741 0.014995 
0.991936 0.125811 0.015301 
0.990853 0.134057 0.015468 
0.989106 0.146440 0.015014 
0.986389 0.163932 0.012798 
0.982301 0.187200 0.006351 
0.976369 0.215920 -0.009031 
0.968049 0.247563 -0.039920 
0.957637 0.275069 -0.085252 
0.701525 0.699787 0.134763 
0.739761 0.664308 0.106996 
0.781188 0.618328 0.086114 
0.817136 0.571849 0.072650 
0.846453 0.528650 0.063617 
0.870026 0.489702 0.056980 
0.889040 0.454901 0.051692 
0.904521 0.423804 0.047251 
0.917263 0.395911 0.043408 
0.927865 0.370761 0.040025 
0.936776 0.347968 0.037014 
0.944327 0.327213 0.034315 
0.950772 0.308247 0.031883 
0.956300 0.290875 0.029682 
0.961061 0.274948 0.027686 
0.965168 0.260347 0.025875 
0.968717 0.246981 0.024232 
0.971785 0.234769 0.022744 
0.974437 0.223641 0.021399 
0.976729 0.213526 0.020187 
0.978711 0.204355 0.019098 
0.980426 0.196054 0.018122 
0.981912 0.188548 0.017249 
0.983205 0.181760 0.016468 
0.984333 0.175613 0.015771 
0.985323 0.170029 0.015147 
0.986196 0.164936 0.014589 
0.986973 0.160265 0.014088 
0.987670 0.155956 0.013636 
0.988299 0.151955 0.013229 
0.988871 0.148220 0.012861 
0.989393 0.144721 0.012530 
0.989871 0.141444 0.012235 
0.990305 0.138394 0.011976 
0.990694 0.135600 0.011757 
0.991032 0.133125 0.011585 
0.991306 0.131075 0.011468 
0.991499 0.129613 0.011418 
0.991581 0.128981 0.011448 
0.991508 0.129527 0.011570 
0.991214 0.131741 0.011787 
0.990593 0.136305 0.012074 
0.989479 0.144148 0.012349 
0.987599 0.156509 0.012382 
0.984504 0.174978 0.011628 
0.979458 0.201455 0.008853 
0.971297 0.237866 0.001465 
0.958355 0.285166 -0.015328 
0.939046 0.340450 -0.047824 
0.916138 0.389740 -0.093776 
0.676560 0.725265 0.127503 
0.714480 0.692589 0.099191 
0.756970 0.648802 0.077792 
0.794951 0.603261 0.064262 
0.826615 0.560025 0.055501 
0.852484 0.520424 0.049289 
0.873600 0.484609 0.044464 
0.890951 0.452292 0.040469 
0.905340 0.423071 0.037034 
0.917385 0.396545 0.034019 
0.927556 0.372367 0.031338 
0.936210 0.350248 0.028935 
0.943616 0.329958 0.026768 
0.949982 0.311319 0.024809 
0.955469 0.294191 0.023033 
0.960206 0.278470 0.021423 
0.964297 0.264068 0.019966 
0.967831 0.250911 0.018650 
0.970880 0.238929 0.017466 
0.973510 0.228053 0.016404 
0.975780 0.218209 0.015456 
0.977738 0.209318 0.014611 
0.979432 0.201299 0.013862 
0.980900 0.194066 0.013198 
0.982177 0.187535 0.012611 
0.983294 0.181621 0.012091 
0.984278 0.176245 0.011631 
0.985150 0.171331 0.011224 
0.985928 0.166815 0.010863 
0.986629 0.162640 0.010543 
0.987263 0.158765 0.010260 
0.987839 0.155161 0.010013 
0.988360 0.151820 0.009801 
0.988827 0.148759 0.009626 
0.989235 0.146025 0.009492 
0.989575 0.143708 0.009406 
0.989829 0.141952 0.009375 
0.989968 0.140978 0.009410 
0.989948 0.141109 0.009519 
0.989703 0.142810 0.009707 
0.989125 0.146738 0.009962 
0.988047 0.153814 0.010234 
0.986188 0.165304 0.010398 
0.983075 0.182920 0.010163 
0.977902 0.208873 0.008899 
0.969306 0.245801 0.005284 
0.955117 0.296211 -0.003282 
0.932436 0.360707 -0.021289 
0.899474 0.433615 -0.054073 
0.863352 0.494937 -0.098289 
0.654566 0.746115 0.121886 
0.692348 0.715429 0.093893 
0.735492 0.673633 0.072597 
0.774879 0.629333 0.059185 
0.808339 0.586538 0.050620 
0.836099 0.546759 0.044655 
0.859038 0.510340 0.040088 
0.878072 0.477147 0.036339 
0.893981 0.446879 0.033130 
0.907382 0.419212 0.030316 
0.918756 0.393845 0.027815 
0.928470 0.370527 0.025573 
0.936806 0.349055 0.023551 
0.943986 0.329271 0.021722 
0.950180 0.311055 0.020065 
0.955529 0.294314 0.018565 
0.960145 0.278971 0.017211 
0.964127 0.264959 0.015992 
0.967558 0.252211 0.014900 
0.970510 0.240657 0.013926 
0.973051 0.230220 0.013062 
0.975238 0.220817 0.012298 
0.977122 0.212361 0.011627 
0.978751 0.204757 0.011037 
0.980163 0.197913 0.010522 
0.981394 0.191738 0.010071 
0.982475 0.186145 0.009678 
0.983429 0.181054 0.009335 
0.984278 0.176396 0.009037 
0.985038 0.172114 0.008779 
0.985721 0.168167 0.008558 
0.986336 0.164532 0.008372 
0.986886 0.161210 0.008223 
0.987368 0.158233 0.008111 
0.987776 0.155671 0.008042 
0.988093 0.153647 0.008021 
0.988293 0.152353 0.008056 
0.988335 0.152080 0.008153 
0.988153 0.153247 0.008314 
0.987648 0.156455 0.008532 
0.986661 0.162552 0.008772 
0.984931 0.172717 0.008950 
0.982021 0.188561 0.008887 
0.977188 0.212218 0.008217 
0.969162 0.246344 0.006226 
0.955856 0.293832 0.001557 
0.934148 0.356792 -0.008239 
0.900484 0.434045 -0.027065 
0.854239 0.516511 -0.059089 
0.807401 0.581400 -0.100385 
0.635636 0.763013 0.117379 
0.673403 0.733779 0.089978 
0.717012 0.693633 0.069040 
0.757395 0.650565 0.055845 
0.792198 0.608416 0.047456 
0.821453 0.568753 0.041658 
0.845899 0.532040 0.037249 
0.866376 0.498258 0.033647 
0.883622 0.467203 0.030569 
0.898241 0.438618 0.027872 
0.910711 0.412259 0.025474 
0.921401 0.387913 0.023322 
0.930602 0.365409 0.021380 
0.938539 0.344616 0.019622 
0.945393 0.325434 0.018031 
0.951311 0.307787 0.016593 
0.956415 0.291610 0.015297 
0.960811 0.276844 0.014135 
0.964590 0.263427 0.013099 
0.967836 0.251288 0.012180 
0.970620 0.240349 0.011371 
0.973009 0.230521 0.010661 
0.975061 0.221709 0.010043 
0.976828 0.213813 0.009506 
0.978356 0.206732 0.009041 
0.979683 0.200368 0.008641 
0.980842 0.194627 0.008297 
0.981862 0.189427 0.008003 
0.982765 0.184695 0.007753 
0.983569 0.180375 0.007542 
0.984286 0.176428 0.007369 
0.984923 0.172840 0.007231 
0.985483 0.169623 0.007131 
0.985961 0.166829 0.007070 
0.986343 0.164555 0.007051 
0.986606 0.162965 0.007082 
0.986714 0.162309 0.007164 
0.986606 0.162955 0.007301 
0.986193 0.165434 0.007484 
0.985329 0.170495 0.007688 
0.983784 0.179186 0.007851 
0.981179 0.192942 0.007845 
0.976877 0.213675 0.007430 
0.969803 0.243810 0.006169 
0.958184 0.286135 0.003297 
0.939257 0.343204 -0.002501 
0.909331 0.415857 -0.013387 
0.865134 0.500483 -0.032548 
0.808247 0.585450 -0.063125 
0.754556 0.648392 -0.101160 
0.619490 0.776733 0.113655 
0.657297 0.748605 0.086891 
0.701264 0.709804 0.066381 
0.742378 0.667847 0.053434 
0.778195 0.626394 0.045208 
0.808622 0.586999 0.039537 
0.834295 0.550190 0.035239 
0.855983 0.516029 0.031733 
0.874382 0.484386 0.028740 
0.890073 0.455069 0.026115 
0.903521 0.427884 0.023779 
0.915093 0.402659 0.021680 
0.925080 0.379258 0.019784 
0.933709 0.357578 0.018068 
0.941165 0.337543 0.016515 
0.947602 0.319095 0.015113 
0.953149 0.302184 0.013853 
0.957918 0.286761 0.012727 
0.962009 0.272767 0.011728 
0.965512 0.260133 0.010847 
0.968508 0.248778 0.010077 
0.971070 0.238608 0.009408 
0.973264 0.229521 0.008830 
0.975146 0.221408 0.008333 
0.976766 0.214162 0.007910 
0.978168 0.207678 0.007550 
0.979388 0.201857 0.007246 
0.980456 0.196613 0.006991 
0.981396 0.191872 0.006780 
0.982227 0.187581 0.006609 
0.982960 0.183705 0.006475 
0.983602 0.180240 0.006378 
0.984152 0.177216 0.006319 
0.984601 0.174705 0.006299 
0.984930 0.172840 0.006321 
0.985106 0.171830 0.006389 
0.985077 0.171990 0.006503 
0.984763 0.173777 0.006657 
0.984036 0.177839 0.006828 
0.982698 0.185083 0.006971 
0.980429 0.196751 0.006990 
0.976701 0.214499 0.006710 
0.970644 0.240451 0.005835 
0.960828 0.277119 0.003876 
0.945006 0.327052 0.000061 
0.919975 0.391917 -0.006794 
0.882050 0.470794 -0.018476 
0.829095 0.557850 -0.037493 
0.765137 0.640449 -0.066266 
0.708203 0.698719 -0.101193 
0.605749 0.787942 0.110525 
0.643609 0.760691 0.084361 
0.687858 0.722994 0.064273 
0.729526 0.682006 0.051570 
0.766123 0.641221 0.043492 
0.797478 0.602155 0.037925 
0.824152 0.565364 0.033709 
0.846855 0.530962 0.030272 
0.866243 0.498875 0.027336 
0.882870 0.468965 0.024760 
0.897185 0.441082 0.022463 
0.909548 0.415098 0.020396 
0.920243 0.390909 0.018527 
0.929498 0.368444 0.016835 
0.937499 0.347652 0.015304 
0.944403 0.328495 0.013924 
0.950345 0.310940 0.012687 
0.955443 0.294947 0.011586 
0.959806 0.280462 0.010614 
0.963531 0.267417 0.009763 
0.966707 0.255727 0.009024 
0.969413 0.245293 0.008387 
0.971720 0.236004 0.007843 
0.973693 0.227746 0.007381 
0.975384 0.220403 0.006992 
0.976841 0.213864 0.006667 
0.978102 0.208026 0.006397 
0.979201 0.202799 0.006177 
0.980161 0.198112 0.006000 
0.981001 0.193913 0.005863 
0.981733 0.190178 0.005764 
0.982360 0.186913 0.005702 
0.982879 0.184167 0.005677 
0.983274 0.182042 0.005691 
0.983520 0.180706 0.005745 
0.983572 0.180424 0.005838 
0.983358 0.181581 0.005966 
0.982771 0.184728 0.006111 
0.981641 0.190636 0.006236 
0.979702 0.200362 0.006269 
0.976525 0.215319 0.006079 
0.971415 0.237326 0.005448 
0.963249 0.268580 0.004034 
0.950264 0.311444 0.001329 
0.929871 0.367870 -0.003387 
0.898770 0.438280 -0.011105 
0.853863 0.519979 -0.023222 
0.794599 0.605700 -0.041703 
0.726956 0.683251 -0.068578 
0.669409 0.736026 -0.100785 
0.594040 0.797170 0.107872 
0.631947 0.770635 0.082247 
0.676418 0.733857 0.062547 
0.718518 0.693704 0.050068 
0.755731 0.653526 0.042122 
0.787833 0.614798 0.036642 
0.815333 0.578080 0.032490 
0.838892 0.543519 0.029103 
0.859131 0.511084 0.026208 
0.876578 0.480678 0.023664 
0.891663 0.452193 0.021391 
0.904733 0.425539 0.019343 
0.916065 0.400649 0.017489 
0.925882 0.377481 0.015809 
0.934372 0.356011 0.014290 
0.941693 0.336225 0.012923 
0.947983 0.318105 0.011701 
0.953369 0.301620 0.010618 
0.957965 0.286722 0.009668 
0.961876 0.273343 0.008841 
0.965198 0.261393 0.008128 
0.968018 0.250767 0.007521 
0.970414 0.241347 0.007007 
0.972452 0.233010 0.006576 
0.974192 0.225633 0.006218 
0.975684 0.219100 0.005924 
0.976969 0.213303 0.005686 
0.978081 0.208154 0.005497 
0.979044 0.203580 0.005351 
0.979876 0.199536 0.005245 
0.980588 0.196009 0.005176 
0.981181 0.193019 0.005144 
0.981647 0.190639 0.005148 
0.981963 0.189001 0.005188 
0.982094 0.188319 0.005264 
0.981979 0.188912 0.005369 
0.981528 0.191242 0.005492 
0.980596 0.195958 0.005602 
0.978965 0.203950 0.005644 
0.976287 0.216409 0.005519 
0.972013 0.234874 0.005063 
0.965266 0.261237 0.004022 
0.954684 0.297614 0.002030 
0.938242 0.345977 -0.001404 
0.913216 0.407418 -0.006896 
0.876580 0.481015 -0.015216 
0.826221 0.562678 -0.027414 
0.763139 0.644659 -0.045100 
0.694435 0.716126 -0.070171 
0.637875 0.763605 -0.100114 
0.584033 0.804830 0.105613 
0.621974 0.778892 0.080463 
0.666623 0.742886 0.061109 
0.709068 0.703447 0.048832 
0.746778 0.663809 0.041001 
0.779495 0.625396 0.035593 
0.807688 0.588768 0.031492 
0.831980 0.554091 0.028143 
0.852960 0.521364 0.025275 
0.871130 0.490526 0.022751 
0.886901 0.461505 0.020492 
0.900605 0.434247 0.018452 
0.912509 0.408719 0.016603 
0.922832 0.384913 0.014927 
0.931758 0.362832 0.013412 
0.939447 0.342484 0.012052 
0.946041 0.323867 0.010841 
0.951672 0.306961 0.009772 
0.956462 0.291722 0.008839 
0.960524 0.278081 0.008034 
0.963961 0.265942 0.007346 
0.966867 0.255193 0.006765 
0.969324 0.245707 0.006279 
0.971405 0.237354 0.005877 
0.973174 0.230004 0.005549 
0.974682 0.223534 0.005284 
0.975972 0.217835 0.005075 
0.977079 0.212818 0.004914 
0.978029 0.208415 0.004796 
0.978837 0.204588 0.004717 
0.979511 0.201334 0.004675 
0.980050 0.198696 0.004669 
0.980439 0.196768 0.004696 
0.980648 0.195720 0.004755 
0.980630 0.195812 0.004842 
0.980306 0.197424 0.004945 
0.979558 0.201098 0.005043 
0.978206 0.207574 0.005091 
0.975969 0.217851 0.005014 
0.972412 0.233223 0.004688 
0.966854 0.255299 0.003921 
0.958246 0.285933 0.002435 
0.945025 0.326997 -0.000133 
0.925026 0.379881 -0.004220 
0.895623 0.444695 -0.010312 
0.854364 0.519329 -0.018956 
0.800248 0.598869 -0.030950 
0.735467 0.675879 -0.047718 
0.667452 0.741243 -0.071181 
0.612684 0.784065 -0.099302 
0.575448 0.811239 0.103684 
0.613414 0.785806 0.078949 
0.658204 0.750453 0.059900 
0.700931 0.711625 0.047801 
0.739055 0.672453 0.040071 
0.772291 0.634319 0.034723 
0.801078 0.597774 0.030661 
0.826008 0.562995 0.027339 
0.847642 0.530004 0.024489 
0.866456 0.498769 0.021975 
0.882844 0.469253 0.019720 
0.897120 0.441434 0.017680 
0.909540 0.415315 0.015829 
0.920316 0.390921 0.014150 
0.929628 0.368282 0.012635 
0.937638 0.347431 0.011277 
0.944492 0.328380 0.010072 
0.950328 0.311120 0.009015 
0.955275 0.295608 0.008098 
0.959454 0.281772 0.007313 
0.962974 0.269511 0.006649 
0.965937 0.258705 0.006093 
0.968431 0.249216 0.005634 
0.970534 0.240907 0.005260 
0.972310 0.233640 0.004960 
0.973816 0.227289 0.004723 
0.975095 0.221742 0.004540 
0.976181 0.216911 0.004406 
0.977101 0.212734 0.004313 
0.977867 0.209183 0.004259 
0.978486 0.206269 0.004240 
0.978950 0.204055 0.004255 
0.979238 0.202667 0.004299 
0.979312 0.202310 0.004369 
0.979108 0.203294 0.004456 
0.978528 0.206063 0.004541 
0.977425 0.211233 0.004592 
0.975572 0.219632 0.004551 
0.972624 0.232344 0.004322 
0.968051 0.250727 0.003760 
0.961044 0.276384 0.002651 
0.950402 0.311023 0.000714 
0.934435 0.356126 -0.002389 
0.910982 0.412387 -0.007015 
0.877727 0.478970 -0.013505 
0.832955 0.552894 -0.022226 
0.776666 0.629005 -0.033819 
0.711763 0.700663 -0.049656 
0.645445 0.760429 -0.071751 
0.592760 0.799341 -0.098435 
0.568054 0.816642 0.102032 
0.606035 0.791638 0.077659 
0.650941 0.756841 0.058878 
0.693908 0.718533 0.046935 
0.732385 0.679756 0.039292 
0.766072 0.641855 0.033995 
0.795381 0.605369 0.029963 
0.820877 0.570482 0.026659 
0.843097 0.537234 0.023818 
0.862495 0.505617 0.021305 
0.879442 0.475625 0.019046 
0.894236 0.447272 0.016999 
0.907122 0.420595 0.015138 
0.918303 0.395650 0.013451 
0.927956 0.372499 0.011931 
0.936242 0.351196 0.010572 
0.943314 0.331769 0.009372 
0.949315 0.314216 0.008325 
0.954382 0.298496 0.007424 
0.958643 0.284532 0.006658 
0.962218 0.272215 0.006017 
0.965211 0.261414 0.005486 
0.967718 0.251984 0.005054 
0.969820 0.243776 0.004707 
0.971586 0.236647 0.004433 
0.973071 0.230466 0.004223 
0.974322 0.225122 0.004066 
0.975372 0.220530 0.003956 
0.976245 0.216633 0.003887 
0.976954 0.213416 0.003854 
0.977499 0.210907 0.003855 
0.977867 0.209191 0.003885 
0.978030 0.208426 0.003939 
0.977938 0.208857 0.004011 
0.977511 0.210845 0.004085 
0.976628 0.214896 0.004137 
0.975107 0.221695 0.004120 
0.972674 0.232142 0.003965 
0.968912 0.247379 0.003556 
0.963199 0.268776 0.002732 
0.954611 0.297853 0.001271 
0.941838 0.336066 -0.001099 
0.923150 0.384413 -0.004666 
0.896534 0.442868 -0.009693 
0.860132 0.509808 -0.016389 
0.812975 0.581762 -0.024992 
0.755819 0.653786 -0.036077 
0.691841 0.720244 -0.051040 
0.627693 0.775123 -0.072007 
0.577086 0.810834 -0.097574 
0.561661 0.821227 0.100613 
0.599652 0.796591 0.076555 
0.644658 0.762267 0.058009 
0.687833 0.724397 0.046203 
0.726624 0.685948 0.038636 
0.760713 0.648230 0.033380 
0.790491 0.611769 0.029371 
0.816502 0.576753 0.026077 
0.839258 0.543236 0.023238 
0.859191 0.511235 0.020718 
0.876651 0.480773 0.018448 
0.891919 0.451898 0.016386 
0.905226 0.424682 0.014511 
0.916767 0.399216 0.012811 
0.926717 0.375591 0.011282 
0.935237 0.353883 0.009920 
0.942485 0.334135 0.008723 
0.948611 0.316350 0.007686 
0.953762 0.300486 0.006800 
0.958073 0.286459 0.006054 
0.961672 0.274149 0.005436 
0.964670 0.263415 0.004931 
0.967167 0.254101 0.004526 
0.969248 0.246050 0.004205 
0.970984 0.239112 0.003958 
0.972433 0.233153 0.003772 
0.973640 0.228062 0.003640 
0.974638 0.223758 0.003552 
0.975450 0.220194 0.003504 
0.976084 0.217367 0.003490 
0.976536 0.215325 0.003505 
0.976788 0.214178 0.003546 
0.976801 0.214117 0.003604 
0.976513 0.215428 0.003668 
0.975825 0.218523 0.003717 
0.974590 0.223964 0.003718 
0.972591 0.232495 0.003615 
0.969500 0.245071 0.003322 
0.964832 0.262853 0.002712 
0.957878 0.287171 0.001613 
0.947625 0.319386 -0.000195 
0.932708 0.360621 -0.002955 
0.911453 0.411347 -0.006894 
0.882110 0.470885 -0.012181 
0.843337 0.537052 -0.018917 
0.794814 0.606240 -0.027269 
0.737767 0.673996 -0.037807 
0.675322 0.735688 -0.051995 
0.613472 0.786422 -0.072055 
0.564789 0.819543 -0.096761 
0.556112 0.825143 0.099392 
0.594112 0.800821 0.075609 
0.639209 0.766898 0.057269 
0.682574 0.729393 0.045582 
0.721652 0.691208 0.038080 
0.756110 0.653619 0.032858 
0.786323 0.617141 0.028865 
0.812813 0.581964 0.025574 
0.836068 0.548155 0.022728 
0.856499 0.515753 0.020196 
0.874435 0.484813 0.017907 
0.890138 0.455416 0.015824 
0.903826 0.427673 0.013929 
0.915686 0.401709 0.012212 
0.925889 0.377644 0.010672 
0.934601 0.355576 0.009306 
0.941983 0.335561 0.008112 
0.948197 0.317605 0.007085 
0.953395 0.301660 0.006216 
0.957725 0.287633 0.005491 
0.961319 0.275395 0.004897 
0.964296 0.264789 0.004418 
0.966761 0.255648 0.004040 
0.968802 0.247807 0.003746 
0.970491 0.241110 0.003524 
0.971888 0.235421 0.003363 
0.973036 0.230631 0.003253 
0.973968 0.226664 0.003186 
0.974703 0.223484 0.003156 
0.975246 0.221102 0.003156 
0.975588 0.219588 0.003183 
0.975702 0.219078 0.003228 
0.975540 0.219796 0.003282 
0.975025 0.222072 0.003328 
0.974038 0.226361 0.003339 
0.972405 0.233277 0.003274 
0.969868 0.243612 0.003066 
0.966049 0.258344 0.002618 
0.960399 0.278622 0.001794 
0.952135 0.305676 0.000419 
0.940190 0.340647 -0.001712 
0.923204 0.384280 -0.004803 
0.899644 0.436531 -0.009015 
0.868094 0.496190 -0.014431 
0.827707 0.560764 -0.021080 
0.778657 0.626774 -0.029101 
0.722379 0.690391 -0.039106 
0.661758 0.747868 -0.052630 
0.602132 0.795146 -0.071972 
0.555157 0.826184 -0.096020 
0.551282 0.828503 0.098339 
0.589292 0.804450 0.074796 
0.634477 0.770864 0.056635 
0.678023 0.733658 0.045054 
0.717372 0.695674 0.037607 
0.752181 0.658159 0.032413 
0.782807 0.621615 0.028429 
0.809751 0.586235 0.025134 
0.833481 0.552099 0.022275 
0.854383 0.519270 0.019722 
0.872764 0.487832 0.017409 
0.888869 0.457906 0.015299 
0.902901 0.429641 0.013379 
0.915039 0.403197 0.011642 
0.925454 0.378726 0.010089 
0.934314 0.356343 0.008719 
0.941791 0.336116 0.007529 
0.948052 0.318049 0.006513 
0.953263 0.302088 0.005662 
0.957579 0.288128 0.004960 
0.961141 0.276023 0.004391 
0.964074 0.265605 0.003940 
0.966486 0.256694 0.003588 
0.968468 0.249115 0.003321 
0.970094 0.242708 0.003124 
0.971423 0.237336 0.002986 
0.972498 0.232892 0.002897 
0.973350 0.229308 0.002849 
0.973993 0.226560 0.002834 
0.974430 0.224675 0.002846 
0.974643 0.223745 0.002879 
0.974600 0.223936 0.002922 
0.974238 0.225503 0.002963 
0.973465 0.228815 0.002981 
0.972143 0.234370 0.002943 
0.970067 0.242823 0.002798 
0.966940 0.254993 0.002471 
0.962335 0.271859 0.001856 
0.955647 0.294513 0.000813 
0.946042 0.324042 -0.000827 
0.932436 0.361319 -0.003245 
0.913537 0.406703 -0.006599 
0.888011 0.459692 -0.010985 
0.854795 0.518706 -0.016420 
0.813472 0.581154 -0.022892 
0.764529 0.643865 -0.030550 
0.709421 0.703646 -0.040062 
0.650701 0.757480 -0.053036 
0.593124 0.801902 -0.071818 
0.547628 0.831269 -0.095365 
0.547069 0.831399 0.097428 
0.585093 0.807574 0.074096 
0.630367 0.774268 0.056093 
0.674093 0.737298 0.044603 
0.713709 0.699454 0.037204 
0.748860 0.661954 0.032030 
0.779888 0.625291 0.028049 
0.807273 0.589659 0.024744 
0.831461 0.555152 0.021865 
0.852814 0.521858 0.019285 
0.871616 0.489897 0.016939 
0.888092 0.459427 0.014798 
0.902432 0.430640 0.012849 
0.914809 0.403734 0.011090 
0.925393 0.378889 0.009523 
0.934359 0.356239 0.008149 
0.941888 0.335856 0.006965 
0.948158 0.317742 0.005963 
0.953347 0.301832 0.005131 
0.957619 0.288004 0.004454 
0.961122 0.276097 0.003913 
0.963987 0.265925 0.003490 
0.966327 0.257298 0.003166 
0.968233 0.250032 0.002925 
0.969781 0.243962 0.002753 
0.971028 0.238950 0.002637 
0.972017 0.234896 0.002567 
0.972775 0.231739 0.002535 
0.973313 0.229469 0.002532 
0.973627 0.228131 0.002552 
0.973695 0.227839 0.002585 
0.973473 0.228786 0.002621 
0.972888 0.231262 0.002642 
0.971830 0.235669 0.002622 
0.970137 0.242543 0.002523 
0.967577 0.252565 0.002286 
0.963816 0.266563 0.001828 
0.958382 0.285487 0.001040 
0.950627 0.310337 -0.000218 
0.939691 0.342018 -0.002100 
0.924514 0.381119 -0.004759 
0.903916 0.427629 -0.008304 
0.876801 0.480683 -0.012776 
0.842439 0.538486 -0.018144 
0.800737 0.598520 -0.024385 
0.752346 0.658006 -0.031680 
0.698615 0.714336 -0.040756 
0.641743 0.765067 -0.053281 
0.585995 0.807142 -0.071631 
0.541762 0.835169 -0.094799 
0.543387 0.833901 0.096640 
0.581433 0.810268 0.073493 
0.626805 0.777188 0.055629 
0.670716 0.740395 0.044219 
0.710600 0.702630 0.036859 
0.746095 0.665085 0.031699 
0.777523 0.628243 0.027714 
0.805347 0.592302 0.024393 
0.829985 0.557372 0.021486 
0.851774 0.523569 0.018872 
0.870975 0.491050 0.016488 
0.887794 0.460018 0.014310 
0.902407 0.430709 0.012329 
0.914981 0.403358 0.010546 
0.925691 0.378175 0.008966 
0.934718 0.355308 0.007589 
0.942256 0.334831 0.006413 
0.948497 0.316738 0.005428 
0.953629 0.300948 0.004619 
0.957827 0.287319 0.003970 
0.961246 0.275672 0.003458 
0.964022 0.265805 0.003064 
0.966270 0.257515 0.002768 
0.968085 0.250610 0.002554 
0.969540 0.244921 0.002405 
0.970693 0.240312 0.002310 
0.971583 0.236688 0.002258 
0.972234 0.234000 0.002239 
0.972654 0.232249 0.002245 
0.972832 0.231503 0.002268 
0.972738 0.231896 0.002298 
0.972318 0.233650 0.002319 
0.971486 0.237084 0.002312 
0.970116 0.242632 0.002245 
0.968023 0.250854 0.002075 
0.964945 0.262446 0.001736 
0.960515 0.278225 0.001142 
0.954227 0.299084 0.000181 
0.945403 0.325902 -0.001280 
0.933186 0.359378 -0.003375 
0.916574 0.399817 -0.006223 
0.894536 0.446886 -0.009891 
0.866215 0.499464 -0.014374 
0.831166 0.555678 -0.019616 
0.789517 0.613194 -0.025600 
0.741963 0.669650 -0.032550 
0.689678 0.722940 -0.041253 
0.634529 0.771051 -0.053419 
0.580384 0.811203 -0.071439 
0.537219 0.838152 -0.094323 
0.540172 0.836066 0.095959 
0.578249 0.812590 0.072974 
0.623729 0.779687 0.055231 
0.667836 0.743013 0.043890 
0.708000 0.705265 0.036563 
0.743847 0.667611 0.031410 
0.775684 0.630526 0.027415 
0.803948 0.594212 0.024070 
0.829034 0.558799 0.021129 
0.851250 0.524434 0.018473 
0.870832 0.491319 0.016045 
0.887965 0.459704 0.013825 
0.902813 0.429872 0.011809 
0.915542 0.402098 0.010002 
0.926331 0.376617 0.008409 
0.935374 0.353590 0.007033 
0.942878 0.333086 0.005868 
0.949051 0.315085 0.004904 
0.954092 0.299485 0.004122 
0.958186 0.286125 0.003502 
0.961496 0.274801 0.003022 
0.964163 0.265297 0.002658 
0.966303 0.257394 0.002392 
0.968012 0.250895 0.002203 
0.969362 0.245629 0.002078 
0.970408 0.241462 0.002002 
0.971188 0.238307 0.001964 
0.971721 0.236124 0.001956 
0.972010 0.234932 0.001968 
0.972038 0.234817 0.001990 
0.971766 0.235937 0.002010 
0.971131 0.238539 0.002011 
0.970032 0.242969 0.001968 
0.968326 0.249683 0.001847 
0.965806 0.259261 0.001597 
0.962185 0.272395 0.001151 
0.957066 0.289871 0.000418 
0.949917 0.312503 -0.000710 
0.940052 0.341024 -0.002354 
0.926639 0.375923 -0.004628 
0.908765 0.417239 -0.007615 
0.885561 0.464384 -0.011344 
0.856395 0.516080 -0.015780 
0.821044 0.570484 -0.020857 
0.779762 0.625512 -0.026579 
0.733205 0.679196 -0.033217 
0.682348 0.729843 -0.041605 
0.628761 0.775757 -0.053488 
0.576003 0.814335 -0.071260 
0.533736 0.840418 -0.093932 
0.537369 0.837938 0.095371 
0.575489 0.814587 0.072527 
0.621093 0.781812 0.054891 
0.665413 0.745200 0.043610 
0.705875 0.707405 0.036307 
0.742092 0.669574 0.031156 
0.774351 0.632174 0.027144 
0.803066 0.595415 0.023767 
0.828603 0.559451 0.020783 
0.851238 0.524468 0.018078 
0.871181 0.490714 0.015600 
0.888597 0.458495 0.013334 
0.903641 0.428143 0.011281 
0.916478 0.399973 0.009450 
0.927298 0.374243 0.007848 
0.936309 0.351117 0.006476 
0.943735 0.330659 0.005327 
0.949800 0.312826 0.004387 
0.954717 0.297492 0.003636 
0.958680 0.284469 0.003049 
0.961859 0.273532 0.002602 
0.964398 0.264445 0.002271 
0.966415 0.256979 0.002033 
0.968003 0.250930 0.001870 
0.969236 0.246125 0.001766 
0.970166 0.242436 0.001708 
0.970825 0.239783 0.001683 
0.971229 0.238140 0.001683 
0.971376 0.237541 0.001697 
0.971241 0.238092 0.001714 
0.970778 0.239973 0.001719 
0.969911 0.243454 0.001693 
0.968527 0.248902 0.001608 
0.966465 0.256793 0.001426 
0.963499 0.267709 0.001091 
0.959318 0.282329 0.000534 
0.953502 0.301386 -0.000336 
0.945507 0.325597 -0.001619 
0.934655 0.355540 -0.003423 
0.920162 0.391495 -0.005838 
0.901218 0.433273 -0.008916 
0.877122 0.480101 -0.012655 
0.847432 0.530632 -0.017001 
0.812082 0.583132 -0.021893 
0.771379 0.635788 -0.027364 
0.725890 0.686984 -0.033725 
0.676386 0.735357 -0.041854 
0.624193 0.779435 -0.053516 
0.572626 0.816727 -0.071104 
0.531111 0.842114 -0.093622 
0.534935 0.839550 0.094865 
0.573112 0.816295 0.072146 
0.618862 0.783600 0.054602 
0.663418 0.746991 0.043371 
0.704202 0.709082 0.036086 
0.740812 0.671000 0.030929 
0.773516 0.633206 0.026892 
0.802698 0.595924 0.023475 
0.828690 0.559334 0.020440 
0.851739 0.523669 0.017678 
0.872022 0.489233 0.015144 
0.889687 0.456390 0.012828 
0.904882 0.425527 0.010738 
0.917777 0.396996 0.008885 
0.928575 0.371073 0.007277 
0.937505 0.347922 0.005914 
0.944808 0.327588 0.004787 
0.950727 0.310005 0.003877 
0.955488 0.295013 0.003160 
0.959294 0.282398 0.002610 
0.962320 0.271909 0.002198 
0.964714 0.263293 0.001899 
0.966593 0.256310 0.001690 
0.968051 0.250750 0.001552 
0.969156 0.246442 0.001469 
0.969959 0.243263 0.001426 
0.970489 0.241143 0.001412 
0.970755 0.240069 0.001417 
0.970749 0.240093 0.001429 
0.970440 0.241338 0.001436 
0.969773 0.244005 0.001421 
0.968660 0.248385 0.001363 
0.966977 0.254862 0.001231 
0.964544 0.263919 0.000981 
0.961118 0.276136 0.000558 
0.956370 0.292158 -0.000110 
0.949866 0.312655 -0.001109 
0.941059 0.338232 -0.002533 
0.929296 0.369309 -0.004471 
0.913857 0.405976 -0.006990 
0.894046 0.447861 -0.010115 
0.869313 0.494069 -0.013823 
0.839370 0.543261 -0.018052 
0.804251 0.593855 -0.022753 
0.764256 0.644305 -0.027990 
0.719842 0.693300 -0.034113 
0.671591 0.739729 -0.042032 
0.620625 0.782278 -0.053525 
0.570076 0.818520 -0.070978 
0.529191 0.843348 -0.093388 
0.532839 0.840931 0.094433 
0.571090 0.817739 0.071821 
0.617009 0.785077 0.054358 
0.661831 0.748409 0.043168 
0.702968 0.710315 0.035894 
0.740004 0.671900 0.030722 
0.773180 0.633627 0.026652 
0.802848 0.595732 0.023186 
0.829304 0.558436 0.020091 
0.852758 0.522022 0.017264 
0.873357 0.486860 0.014668 
0.891232 0.453381 0.012300 
0.906528 0.422024 0.010173 
0.919425 0.393177 0.008301 
0.930146 0.367129 0.006693 
0.938942 0.344035 0.005345 
0.946077 0.323913 0.004246 
0.951812 0.306664 0.003371 
0.956386 0.292095 0.002693 
0.960010 0.279957 0.002182 
0.962865 0.269976 0.001807 
0.965099 0.261882 0.001541 
0.966828 0.255424 0.001362 
0.968144 0.250389 0.001247 
0.969114 0.246609 0.001182 
0.969783 0.243968 0.001153 
0.970174 0.242406 0.001147 
0.970294 0.241927 0.001153 
0.970127 0.242596 0.001160 
0.969634 0.244557 0.001153 
0.968752 0.248028 0.001115 
0.967383 0.253315 0.001019 
0.965388 0.260816 0.000834 
0.962575 0.271014 0.000514 
0.958685 0.284470 0.000002 
0.953374 0.301791 -0.000774 
0.946203 0.323567 -0.001893 
0.936636 0.350287 -0.003439 
0.924055 0.382219 -0.005484 
0.907817 0.419290 -0.008072 
0.887336 0.460987 -0.011209 
0.862194 0.506360 -0.014856 
0.832219 0.554124 -0.018952 
0.797492 0.602873 -0.023465 
0.758276 0.651311 -0.028491 
0.714901 0.698378 -0.034412 
0.667790 0.743155 -0.042162 