# OOMMF: rectangular mesh v0.99 
# Segment count: 1 
# Begin: Segment 
# Begin: Header 
# Title: model.omf 
# Desc: 
# meshunit: unknown 
# xbase: 0 
# ybase: 0 
# zbase: 0 
# xstepsize: 1
# ystepsize: 1 
# zstepsize: 1 
# xnodes: 50 
# ynodes: 50 
# znodes: 4 
# xmin: -0.5 
# ymin: -0.5 
# zmin: -0.5 
# xmax: 49.500000 
# ymax: 49.500000 
# zmax: 3.500000 
# valueunit: Ms 
# valuemultiplier: 1 
# ValueRangeMaxMag:  1. 
# ValueRangeMinMag:  1e-8 
# End: Header 
# Begin: data text 
0.752361 0.639992 0.156087 
0.789477 0.598228 0.137291 
0.825649 0.551195 0.120371 
0.855731 0.506227 0.107047 
0.879748 0.465552 0.096467 
0.898789 0.429508 0.087755 
0.913977 0.397731 0.080353 
0.926224 0.369654 0.073930 
0.936223 0.344707 0.068282 
0.944490 0.322391 0.063269 
0.951402 0.302289 0.058786 
0.957240 0.284067 0.054750 
0.962212 0.267463 0.051098 
0.966475 0.252277 0.047780 
0.970147 0.238353 0.044757 
0.973320 0.225577 0.041999 
0.976067 0.213857 0.039481 
0.978447 0.203121 0.037185 
0.980511 0.193304 0.035095 
0.982300 0.184350 0.033196 
0.983851 0.176200 0.031474 
0.985197 0.168796 0.029917 
0.986366 0.162077 0.028509 
0.987385 0.155980 0.027238 
0.988275 0.150441 0.026091 
0.989056 0.145398 0.025052 
0.989746 0.140788 0.024111 
0.990360 0.136552 0.023255 
0.990910 0.132639 0.022472 
0.991406 0.128999 0.021755 
0.991857 0.125595 0.021094 
0.992270 0.122394 0.020485 
0.992649 0.119378 0.019923 
0.992996 0.116541 0.019409 
0.993312 0.113895 0.018946 
0.993594 0.111473 0.018540 
0.993838 0.109336 0.018204 
0.994034 0.107580 0.017952 
0.994169 0.106351 0.017806 
0.994223 0.105851 0.017791 
0.994166 0.106363 0.017927 
0.993956 0.108258 0.018220 
0.993533 0.112008 0.018626 
0.992813 0.118162 0.018980 
0.991690 0.127267 0.018821 
0.990057 0.139627 0.017057 
0.987882 0.154793 0.011340 
0.985334 0.170614 -0.002706 
0.982783 0.182144 -0.030985 
0.980376 0.183354 -0.072418 
0.727361 0.670720 0.145192 
0.765772 0.631789 0.120152 
0.805137 0.584444 0.100895 
0.838208 0.538262 0.087639 
0.864702 0.496185 0.078049 
0.885777 0.458715 0.070570 
0.902654 0.425523 0.064385 
0.916325 0.396052 0.059085 
0.927537 0.369744 0.054449 
0.936845 0.346103 0.050341 
0.944658 0.324721 0.046670 
0.951278 0.305270 0.043365 
0.956932 0.287491 0.040374 
0.961790 0.271188 0.037656 
0.965980 0.256212 0.035180 
0.969605 0.242449 0.032921 
0.972745 0.229813 0.030861 
0.975466 0.218232 0.028985 
0.977824 0.207643 0.027280 
0.979866 0.197989 0.025734 
0.981635 0.189209 0.024336 
0.983168 0.181242 0.023074 
0.984498 0.174021 0.021939 
0.985654 0.167479 0.020918 
0.986663 0.161545 0.019999 
0.987547 0.156152 0.019172 
0.988327 0.151230 0.018426 
0.989019 0.146717 0.017752 
0.989639 0.142555 0.017139 
0.990197 0.138692 0.016581 
0.990703 0.135086 0.016071 
0.991166 0.131708 0.015606 
0.991588 0.128538 0.015182 
0.991974 0.125575 0.014801 
0.992321 0.122837 0.014466 
0.992628 0.120371 0.014182 
0.992885 0.118256 0.013961 
0.993081 0.116615 0.013817 
0.993197 0.115633 0.013767 
0.993203 0.115573 0.013830 
0.993056 0.116800 0.014019 
0.992693 0.119813 0.014331 
0.992014 0.125268 0.014708 
0.990869 0.133998 0.014967 
0.989031 0.146982 0.014626 
0.986176 0.165227 0.012546 
0.981874 0.189430 0.006262 
0.975619 0.219288 -0.008931 
0.966860 0.252216 -0.039609 
0.956004 0.280849 -0.084737 
0.700315 0.700811 0.135727 
0.738473 0.665581 0.107976 
0.779804 0.619936 0.087093 
0.815675 0.573808 0.073607 
0.844951 0.530937 0.064534 
0.868520 0.492268 0.057843 
0.887565 0.457681 0.052493 
0.903107 0.426726 0.047984 
0.915935 0.398899 0.044068 
0.926644 0.373741 0.040609 
0.935674 0.350865 0.037519 
0.943356 0.329958 0.034738 
0.949937 0.310776 0.032220 
0.955603 0.293132 0.029931 
0.960499 0.276887 0.027845 
0.964737 0.261934 0.025944 
0.968408 0.248192 0.024213 
0.971588 0.235594 0.022639 
0.974340 0.224080 0.021213 
0.976720 0.213592 0.019925 
0.978777 0.204067 0.018765 
0.980556 0.195438 0.017725 
0.982095 0.187634 0.016794 
0.983431 0.180581 0.015962 
0.984593 0.174200 0.015220 
0.985609 0.168414 0.014557 
0.986502 0.163150 0.013965 
0.987294 0.158336 0.013434 
0.988000 0.153910 0.012957 
0.988634 0.149817 0.012528 
0.989208 0.146013 0.012142 
0.989729 0.142467 0.011796 
0.990202 0.139166 0.011489 
0.990629 0.136115 0.011222 
0.991008 0.133347 0.010999 
0.991333 0.130927 0.010826 
0.991591 0.128965 0.010714 
0.991765 0.127629 0.010676 
0.991823 0.127168 0.010724 
0.991722 0.127939 0.010874 
0.991393 0.130443 0.011129 
0.990728 0.135373 0.011468 
0.989554 0.143676 0.011809 
0.987589 0.156609 0.011928 
0.984364 0.175785 0.011282 
0.979114 0.203126 0.008641 
0.970631 0.240571 0.001419 
0.957194 0.289048 -0.015165 
0.937211 0.345529 -0.047392 
0.913643 0.395726 -0.093045 
0.675115 0.726434 0.128503 
0.712947 0.694021 0.100205 
0.755332 0.650587 0.078799 
0.793229 0.605419 0.065240 
0.824847 0.562533 0.056434 
0.850711 0.523234 0.050168 
0.871862 0.487654 0.045280 
0.889284 0.455495 0.041216 
0.903772 0.426349 0.037709 
0.915941 0.399817 0.034617 
0.926255 0.375550 0.031857 
0.935063 0.353263 0.029371 
0.942631 0.332734 0.027119 
0.949161 0.313791 0.025071 
0.954810 0.296309 0.023206 
0.959703 0.280193 0.021507 
0.963939 0.265372 0.019962 
0.967605 0.251784 0.018562 
0.970773 0.239375 0.017298 
0.973507 0.228084 0.016162 
0.975865 0.217848 0.015145 
0.977898 0.208595 0.014239 
0.979653 0.200249 0.013434 
0.981170 0.192726 0.012722 
0.982487 0.185941 0.012092 
0.983634 0.179808 0.011535 
0.984640 0.174247 0.011044 
0.985528 0.169180 0.010609 
0.986318 0.164539 0.010224 
0.987024 0.160267 0.009884 
0.987660 0.156319 0.009585 
0.988234 0.152668 0.009324 
0.988749 0.149306 0.009101 
0.989208 0.146250 0.008918 
0.989604 0.143551 0.008780 
0.989928 0.141301 0.008694 
0.990163 0.139652 0.008668 
0.990278 0.138830 0.008715 
0.990230 0.139167 0.008843 
0.989949 0.141137 0.009059 
0.989327 0.145411 0.009352 
0.988190 0.152925 0.009676 
0.986250 0.164964 0.009909 
0.983017 0.183257 0.009764 
0.977656 0.210033 0.008613 
0.968764 0.247932 0.005144 
0.954111 0.299435 -0.003233 
0.930749 0.365055 -0.020986 
0.896929 0.438935 -0.053423 
0.860055 0.500847 -0.097246 
0.652871 0.747428 0.122930 
0.690554 0.717021 0.094954 
0.733582 0.675598 0.073650 
0.772879 0.631691 0.060208 
0.806289 0.589268 0.051597 
0.834045 0.549811 0.045576 
0.857024 0.513646 0.040946 
0.876140 0.480625 0.037127 
0.892164 0.450442 0.033844 
0.905710 0.422767 0.030953 
0.917249 0.397303 0.028371 
0.927144 0.373800 0.026044 
0.935670 0.352063 0.023933 
0.943042 0.331944 0.022013 
0.949426 0.313336 0.020265 
0.954956 0.296159 0.018674 
0.959742 0.280353 0.017230 
0.963878 0.265866 0.015925 
0.967446 0.252647 0.014752 
0.970518 0.240639 0.013703 
0.973160 0.229774 0.012771 
0.975432 0.219979 0.011946 
0.977386 0.211167 0.011220 
0.979070 0.203250 0.010583 
0.980526 0.196134 0.010026 
0.981791 0.189725 0.009540 
0.982896 0.183935 0.009116 
0.983868 0.178682 0.008747 
0.984728 0.173894 0.008427 
0.985495 0.169511 0.008150 
0.986180 0.165491 0.007913 
0.986792 0.161811 0.007714 
0.987335 0.158472 0.007554 
0.987807 0.155507 0.007435 
0.988200 0.152991 0.007363 
0.988499 0.151052 0.007343 
0.988675 0.149888 0.007384 
0.988688 0.149797 0.007494 
0.988472 0.151209 0.007676 
0.987924 0.154738 0.007924 
0.986880 0.161248 0.008205 
0.985072 0.171934 0.008440 
0.982051 0.188426 0.008451 
0.977048 0.212873 0.007879 
0.968759 0.247933 0.006015 
0.955040 0.296473 0.001515 
0.932716 0.360523 -0.008057 
0.898216 0.438750 -0.026574 
0.851032 0.521881 -0.058177 
0.803479 0.587043 -0.099010 
0.633689 0.764464 0.118461 
0.671346 0.735525 0.091085 
0.714830 0.695771 0.070142 
0.755116 0.653116 0.056918 
0.789866 0.611360 0.048485 
0.819118 0.572039 0.042631 
0.843612 0.535596 0.038159 
0.864181 0.501998 0.034486 
0.881559 0.471033 0.031334 
0.896343 0.442440 0.028557 
0.909003 0.415974 0.026074 
0.919901 0.391426 0.023834 
0.929320 0.368632 0.021800 
0.937478 0.347472 0.019948 
0.944550 0.327859 0.018262 
0.950676 0.309735 0.016729 
0.955973 0.293052 0.015341 
0.960545 0.277769 0.014090 
0.964479 0.263840 0.012971 
0.967859 0.251209 0.011976 
0.970757 0.239809 0.011097 
0.973240 0.229559 0.010326 
0.975369 0.220368 0.009653 
0.977198 0.212139 0.009069 
0.978773 0.204769 0.008564 
0.980136 0.198159 0.008129 
0.981323 0.192213 0.007756 
0.982361 0.186844 0.007436 
0.983276 0.181978 0.007164 
0.984086 0.177556 0.006936 
0.984804 0.173537 0.006747 
0.985438 0.169907 0.006598 
0.985990 0.166680 0.006488 
0.986455 0.163908 0.006421 
0.986820 0.161695 0.006401 
0.987062 0.160210 0.006433 
0.987142 0.159710 0.006524 
0.987001 0.160574 0.006675 
0.986545 0.163344 0.006882 
0.985627 0.168787 0.007119 
0.984009 0.177966 0.007328 
0.981301 0.192336 0.007385 
0.976847 0.213823 0.007053 
0.969541 0.244860 0.005902 
0.957561 0.288214 0.003175 
0.938094 0.346373 -0.002428 
0.907411 0.420041 -0.013050 
0.862286 0.505418 -0.031850 
0.804488 0.590730 -0.061949 
0.750198 0.653686 -0.099482 
0.617300 0.778312 0.114765 
0.654986 0.750496 0.088034 
0.698818 0.712105 0.067525 
0.739827 0.670582 0.054553 
0.775589 0.629539 0.046285 
0.806015 0.590504 0.040560 
0.831742 0.553980 0.036199 
0.853534 0.520014 0.032623 
0.872082 0.488466 0.029553 
0.887959 0.459139 0.026847 
0.901622 0.431836 0.024424 
0.913429 0.406390 0.022233 
0.923662 0.382673 0.020241 
0.932541 0.360593 0.018427 
0.940243 0.340090 0.016774 
0.946914 0.321124 0.015274 
0.952677 0.303666 0.013918 
0.957641 0.287685 0.012701 
0.961904 0.273141 0.011617 
0.965555 0.259981 0.010658 
0.968676 0.248135 0.009818 
0.971341 0.237517 0.009087 
0.973618 0.228029 0.008455 
0.975565 0.219567 0.007912 
0.977237 0.212020 0.007448 
0.978678 0.205280 0.007054 
0.979926 0.199248 0.006721 
0.981014 0.193831 0.006442 
0.981966 0.188955 0.006211 
0.982802 0.184562 0.006022 
0.983536 0.180617 0.005875 
0.984173 0.177117 0.005766 
0.984713 0.174090 0.005699 
0.985148 0.171615 0.005674 
0.985457 0.169828 0.005696 
0.985608 0.168947 0.005769 
0.985548 0.169295 0.005893 
0.985193 0.171341 0.006063 
0.984415 0.175749 0.006262 
0.983009 0.183443 0.006443 
0.980646 0.195682 0.006513 
0.976782 0.214143 0.006304 
0.970520 0.240958 0.005522 
0.960392 0.278630 0.003687 
0.944101 0.329657 0.000039 
0.918401 0.395595 -0.006594 
0.879614 0.475348 -0.017977 
0.825716 0.562897 -0.036591 
0.760952 0.645558 -0.064854 
0.703566 0.703663 -0.099264 
0.603329 0.789638 0.111651 
0.641057 0.762713 0.085529 
0.685161 0.725446 0.065450 
0.726718 0.684910 0.052727 
0.763257 0.644553 0.044610 
0.794612 0.605864 0.038992 
0.821348 0.569371 0.034714 
0.844166 0.535173 0.031206 
0.863719 0.503184 0.028193 
0.880553 0.473260 0.025534 
0.895107 0.445249 0.023147 
0.907732 0.419025 0.020986 
0.918702 0.394494 0.019018 
0.928234 0.371597 0.017223 
0.936508 0.350299 0.015589 
0.943671 0.330585 0.014107 
0.949851 0.312442 0.012771 
0.955164 0.295852 0.011576 
0.959714 0.280782 0.010516 
0.963599 0.267179 0.009586 
0.966909 0.254970 0.008776 
0.969725 0.244066 0.008077 
0.972121 0.234360 0.007479 
0.974163 0.225738 0.006971 
0.975908 0.218084 0.006543 
0.977405 0.211284 0.006185 
0.978696 0.205230 0.005888 
0.979814 0.199830 0.005644 
0.980786 0.195008 0.005448 
0.981632 0.190711 0.005295 
0.982363 0.186912 0.005183 
0.982984 0.183619 0.005111 
0.983491 0.180883 0.005079 
0.983871 0.178809 0.005090 
0.984094 0.177573 0.005145 
0.984116 0.177447 0.005245 
0.983865 0.178829 0.005386 
0.983230 0.182283 0.005552 
0.982038 0.188598 0.005708 
0.980013 0.198850 0.005783 
0.976714 0.214470 0.005652 
0.971425 0.237292 0.005100 
0.962989 0.269513 0.003791 
0.949599 0.313464 0.001225 
0.928623 0.371009 -0.003304 
0.896744 0.442419 -0.010773 
0.850923 0.524806 -0.022561 
0.790768 0.610768 -0.040614 
0.722463 0.688159 -0.066969 
0.664604 0.740654 -0.098660 
0.591406 0.798972 0.109004 
0.629171 0.772777 0.083430 
0.673487 0.736445 0.063747 
0.715469 0.696762 0.051254 
0.752621 0.657031 0.043274 
0.784725 0.618693 0.037744 
0.812292 0.582286 0.033532 
0.835979 0.547937 0.030076 
0.856399 0.515602 0.027103 
0.874073 0.485177 0.024474 
0.889421 0.456553 0.022110 
0.902779 0.429640 0.019965 
0.914413 0.404381 0.018008 
0.924537 0.380747 0.016222 
0.933325 0.358736 0.014596 
0.940928 0.338354 0.013123 
0.947477 0.319606 0.011799 
0.953094 0.302488 0.010619 
0.957891 0.286971 0.009580 
0.961974 0.273005 0.008672 
0.965438 0.260513 0.007889 
0.968374 0.249398 0.007219 
0.970862 0.239547 0.006652 
0.972973 0.230837 0.006176 
0.974769 0.223143 0.005780 
0.976302 0.216344 0.005455 
0.977616 0.210331 0.005190 
0.978747 0.205009 0.004979 
0.979722 0.200304 0.004815 
0.980559 0.196167 0.004694 
0.981270 0.192584 0.004613 
0.981855 0.189577 0.004572 
0.982307 0.187221 0.004571 
0.982605 0.185653 0.004611 
0.982709 0.185095 0.004690 
0.982561 0.185877 0.004804 
0.982066 0.188475 0.004943 
0.981077 0.193553 0.005078 
0.979368 0.202019 0.005155 
0.976582 0.215086 0.005079 
0.972150 0.234311 0.004689 
0.965171 0.261592 0.003735 
0.954243 0.299027 0.001860 
0.937297 0.348530 -0.001418 
0.911580 0.411068 -0.006704 
0.874088 0.485544 -0.014752 
0.822814 0.567687 -0.026601 
0.758940 0.649683 -0.043849 
0.689727 0.720831 -0.068404 
0.632973 0.767966 -0.097843 
0.581203 0.806727 0.106744 
0.618992 0.781141 0.081654 
0.663476 0.745598 0.062325 
0.705796 0.706646 0.050040 
0.743442 0.667469 0.042179 
0.776163 0.629462 0.036725 
0.804429 0.593156 0.032565 
0.828859 0.558698 0.029148 
0.850036 0.526072 0.026203 
0.868453 0.495210 0.023593 
0.884511 0.466036 0.021240 
0.898529 0.438498 0.019100 
0.910763 0.412574 0.017145 
0.921418 0.388269 0.015359 
0.930667 0.365610 0.013734 
0.938660 0.344627 0.012265 
0.945532 0.325346 0.010948 
0.951410 0.307773 0.009780 
0.956413 0.291885 0.008757 
0.960656 0.277630 0.007870 
0.964242 0.264929 0.007111 
0.967268 0.253676 0.006468 
0.969820 0.243749 0.005930 
0.971976 0.235016 0.005485 
0.973801 0.227345 0.005120 
0.975350 0.220609 0.004825 
0.976670 0.214696 0.004590 
0.977797 0.209509 0.004409 
0.978757 0.204980 0.004274 
0.979568 0.201067 0.004182 
0.980240 0.197768 0.004130 
0.980770 0.195125 0.004117 
0.981143 0.193239 0.004141 
0.981330 0.192284 0.004201 
0.981282 0.192529 0.004294 
0.980919 0.194369 0.004409 
0.980119 0.198358 0.004526 
0.978697 0.205256 0.004603 
0.976364 0.216082 0.004566 
0.972670 0.232151 0.004295 
0.966912 0.255083 0.003600 
0.958009 0.286730 0.002212 
0.944356 0.328924 -0.000227 
0.923754 0.382965 -0.004144 
0.893571 0.448810 -0.010010 
0.851417 0.524167 -0.018365 
0.796432 0.603983 -0.029999 
0.730981 0.680823 -0.046330 
0.662600 0.745761 -0.069291 
0.607733 0.788205 -0.096922 
0.572438 0.813222 0.104809 
0.610242 0.788151 0.080143 
0.654858 0.753276 0.061127 
0.697454 0.714951 0.049026 
0.735510 0.676256 0.041270 
0.768752 0.638540 0.035880 
0.797618 0.602327 0.031761 
0.822697 0.567772 0.028372 
0.844543 0.534883 0.025445 
0.863625 0.503617 0.022844 
0.880322 0.473933 0.020493 
0.894938 0.445813 0.018350 
0.907714 0.419270 0.016389 
0.918847 0.394343 0.014597 
0.928506 0.371090 0.012967 
0.936841 0.349566 0.011497 
0.943990 0.329816 0.010184 
0.950087 0.311855 0.009026 
0.955258 0.295666 0.008017 
0.959624 0.281196 0.007150 
0.963298 0.268356 0.006415 
0.966385 0.257034 0.005799 
0.968976 0.247097 0.005289 
0.971154 0.238404 0.004872 
0.972987 0.230816 0.004537 
0.974534 0.224201 0.004271 
0.975841 0.218443 0.004065 
0.976946 0.213449 0.003912 
0.977875 0.209154 0.003805 
0.978644 0.205527 0.003739 
0.979259 0.202580 0.003712 
0.979712 0.200378 0.003721 
0.979982 0.199051 0.003764 
0.980030 0.198813 0.003838 
0.979791 0.199985 0.003933 
0.979165 0.203024 0.004034 
0.978000 0.208563 0.004108 
0.976063 0.217452 0.004100 
0.972995 0.230793 0.003917 
0.968249 0.249963 0.003415 
0.960991 0.276570 0.002386 
0.949983 0.312301 0.000556 
0.933496 0.358578 -0.002407 
0.909350 0.415976 -0.006848 
0.875253 0.483488 -0.013097 
0.829586 0.557964 -0.021517 
0.772505 0.634163 -0.032747 
0.707060 0.705512 -0.048156 
0.640500 0.764783 -0.069766 
0.587788 0.803302 -0.095977 
0.564880 0.818701 0.103149 
0.602690 0.794070 0.078853 
0.647413 0.759765 0.060112 
0.690241 0.721974 0.048173 
0.728649 0.683689 0.040508 
0.762342 0.646218 0.035171 
0.791735 0.610073 0.031086 
0.817392 0.575415 0.027715 
0.839840 0.542267 0.024797 
0.859525 0.510611 0.022197 
0.876805 0.480436 0.019840 
0.891965 0.451759 0.017687 
0.905232 0.424627 0.015713 
0.916795 0.399115 0.013909 
0.926817 0.375312 0.012270 
0.935448 0.353300 0.010795 
0.942830 0.333139 0.009485 
0.949103 0.314856 0.008335 
0.954402 0.298434 0.007341 
0.958856 0.283817 0.006493 
0.962588 0.270908 0.005781 
0.965707 0.259584 0.005192 
0.968312 0.249701 0.004710 
0.970488 0.241109 0.004322 
0.972310 0.233662 0.004016 
0.973836 0.227222 0.003778 
0.975114 0.221674 0.003600 
0.976182 0.216927 0.003473 
0.977063 0.212922 0.003391 
0.977773 0.209641 0.003348 
0.978311 0.207114 0.003342 
0.978666 0.205429 0.003369 
0.978809 0.204749 0.003425 
0.978687 0.205329 0.003503 
0.978219 0.207543 0.003589 
0.977282 0.211911 0.003659 
0.975687 0.219139 0.003670 
0.973149 0.230147 0.003551 
0.969240 0.246097 0.003193 
0.963313 0.268370 0.002435 
0.954415 0.298482 0.001061 
0.941199 0.337850 -0.001193 
0.921907 0.387384 -0.004608 
0.894525 0.446919 -0.009436 
0.857248 0.514660 -0.015880 
0.809230 0.586995 -0.024176 
0.751378 0.658948 -0.034900 
0.686979 0.724992 -0.049450 
0.622689 0.779336 -0.069951 
0.572110 0.814649 -0.095060 
0.558336 0.823355 0.101721 
0.596148 0.799101 0.077748 
0.640962 0.765282 0.059249 
0.683993 0.727943 0.047451 
0.722711 0.689999 0.039866 
0.756808 0.652722 0.034574 
0.786677 0.616610 0.030513 
0.812860 0.581826 0.027154 
0.835860 0.548407 0.024237 
0.856100 0.516358 0.021629 
0.873916 0.485695 0.019259 
0.889575 0.456470 0.017087 
0.903289 0.428768 0.015095 
0.915236 0.402700 0.013274 
0.925575 0.378386 0.011623 
0.934457 0.355932 0.010142 
0.942028 0.335418 0.008832 
0.948436 0.316875 0.007691 
0.953825 0.300288 0.006712 
0.958333 0.285592 0.005885 
0.962090 0.272681 0.005197 
0.965214 0.261420 0.004635 
0.967808 0.251653 0.004181 
0.969963 0.243221 0.003823 
0.971754 0.235970 0.003544 
0.973242 0.229760 0.003334 
0.974475 0.224474 0.003182 
0.975489 0.220025 0.003079 
0.976308 0.216365 0.003020 
0.976941 0.213489 0.002998 
0.977385 0.211447 0.003009 
0.977621 0.210352 0.003049 
0.977610 0.210403 0.003111 
0.977287 0.211898 0.003183 
0.976551 0.215261 0.003247 
0.975252 0.221072 0.003270 
0.973163 0.230097 0.003198 
0.969945 0.243308 0.002947 
0.965096 0.261887 0.002392 
0.957880 0.287166 0.001364 
0.947253 0.320487 -0.000349 
0.931817 0.362915 -0.002985 
0.909882 0.414812 -0.006761 
0.879720 0.475344 -0.011839 
0.840070 0.542169 -0.018315 
0.790745 0.611578 -0.026357 
0.733104 0.679134 -0.036543 
0.670347 0.740339 -0.050332 
0.608435 0.790515 -0.069944 
0.559821 0.823241 -0.094206 
0.552651 0.827332 0.100490 
0.590463 0.803402 0.076799 
0.635360 0.769996 0.058511 
0.678575 0.733036 0.046839 
0.717578 0.695368 0.039322 
0.752046 0.658230 0.034067 
0.782356 0.622107 0.030024 
0.809028 0.587164 0.026669 
0.832545 0.553449 0.023745 
0.853303 0.520987 0.021122 
0.871619 0.489826 0.018731 
0.887738 0.460052 0.016536 
0.901857 0.431790 0.014519 
0.914146 0.405187 0.012677 
0.924758 0.380395 0.011011 
0.933846 0.357547 0.009523 
0.941564 0.336734 0.008214 
0.948066 0.317995 0.007082 
0.953507 0.301309 0.006119 
0.958035 0.286603 0.005314 
0.961787 0.273758 0.004652 
0.964889 0.262624 0.004118 
0.967450 0.253035 0.003694 
0.969563 0.244819 0.003364 
0.971305 0.237818 0.003113 
0.972738 0.231887 0.002930 
0.973911 0.226913 0.002802 
0.974857 0.222814 0.002722 
0.975597 0.219552 0.002683 
0.976137 0.217138 0.002678 
0.976468 0.215643 0.002703 
0.976564 0.215211 0.002749 
0.976373 0.216072 0.002809 
0.975818 0.218568 0.002867 
0.974775 0.223172 0.002896 
0.973064 0.230516 0.002857 
0.970419 0.241412 0.002683 
0.966446 0.256858 0.002281 
0.960576 0.278013 0.001516 
0.951998 0.306104 0.000218 
0.939613 0.342235 -0.001812 
0.922037 0.387074 -0.004770 
0.897735 0.440448 -0.008810 
0.865336 0.500996 -0.014008 
0.824096 0.566083 -0.020391 
0.774317 0.632173 -0.028106 
0.717545 0.695487 -0.037767 
0.656704 0.752428 -0.050910 
0.597081 0.799137 -0.069821 
0.550206 0.829785 -0.093437 
0.547695 0.830749 0.099426 
0.585511 0.807096 0.075982 
0.630487 0.774038 0.057881 
0.673879 0.737389 0.046317 
0.713150 0.699933 0.038860 
0.747972 0.662878 0.033635 
0.778702 0.626696 0.029602 
0.805841 0.591551 0.026244 
0.829848 0.557502 0.023307 
0.851099 0.524599 0.020662 
0.869884 0.492919 0.018242 
0.886429 0.462586 0.016017 
0.900917 0.433766 0.013971 
0.913506 0.406646 0.012105 
0.924348 0.381409 0.010422 
0.933598 0.358212 0.008926 
0.941417 0.337158 0.007620 
0.947972 0.318286 0.006498 
0.953428 0.301571 0.005554 
0.957942 0.286923 0.004773 
0.961661 0.274211 0.004139 
0.964716 0.263268 0.003634 
0.967221 0.253915 0.003240 
0.969273 0.245971 0.002939 
0.970949 0.239271 0.002716 
0.972313 0.233669 0.002558 
0.973411 0.229054 0.002454 
0.974274 0.225353 0.002395 
0.974921 0.222540 0.002373 
0.975352 0.220643 0.002382 
0.975552 0.219755 0.002414 
0.975485 0.220050 0.002462 
0.975090 0.221794 0.002512 
0.974270 0.225368 0.002544 
0.972882 0.231289 0.002527 
0.970713 0.240231 0.002411 
0.967456 0.253031 0.002121 
0.962666 0.270687 0.001555 
0.955715 0.294294 0.000576 
0.945740 0.324922 -0.000982 
0.931630 0.363394 -0.003292 
0.912076 0.409970 -0.006506 
0.885763 0.464014 -0.010712 
0.851694 0.523797 -0.015922 
0.809559 0.586622 -0.022126 
0.759968 0.649292 -0.029483 
0.704458 0.708692 -0.038663 
0.645596 0.761956 -0.051271 
0.588071 0.805806 -0.069637 
0.542698 0.834790 -0.092762 
0.543366 0.833697 0.098506 
0.581189 0.810279 0.075278 
0.626249 0.777512 0.057340 
0.669815 0.741110 0.045873 
0.709352 0.703804 0.038467 
0.744518 0.666773 0.033264 
0.775658 0.630476 0.029235 
0.803251 0.595078 0.025868 
0.827735 0.560651 0.022909 
0.849459 0.527267 0.020234 
0.868689 0.495038 0.017780 
0.885631 0.464130 0.015518 
0.900451 0.434751 0.013440 
0.913298 0.407129 0.011547 
0.924325 0.381480 0.009846 
0.933691 0.357982 0.008343 
0.941569 0.336746 0.007041 
0.948136 0.317810 0.005933 
0.953569 0.301134 0.005010 
0.958036 0.286616 0.004256 
0.961693 0.274104 0.003652 
0.964678 0.263415 0.003178 
0.967107 0.254355 0.002814 
0.969079 0.246736 0.002542 
0.970675 0.240386 0.002347 
0.971954 0.235160 0.002213 
0.972963 0.230950 0.002131 
0.973731 0.227693 0.002090 
0.974270 0.225377 0.002083 
0.974576 0.224047 0.002101 
0.974628 0.223823 0.002137 
0.974378 0.224905 0.002179 
0.973753 0.227595 0.002212 
0.972639 0.232310 0.002209 
0.970869 0.239603 0.002134 
0.968198 0.250176 0.001928 
0.964282 0.264875 0.001511 
0.958628 0.284661 0.000776 
0.950563 0.310532 -0.000415 
0.939201 0.343360 -0.002210 
0.923459 0.383668 -0.004755 
0.902156 0.431333 -0.008153 
0.874228 0.485356 -0.012438 
0.839026 0.543807 -0.017577 
0.796568 0.604091 -0.023552 
0.747609 0.663436 -0.030551 
0.693558 0.719327 -0.039308 
0.636607 0.769468 -0.051481 
0.580950 0.810972 -0.069429 
0.536857 0.838622 -0.092184 
0.539578 0.836247 0.097709 
0.577417 0.813027 0.074671 
0.622568 0.780496 0.056877 
0.666314 0.744282 0.045494 
0.706119 0.707066 0.038130 
0.741632 0.669997 0.032944 
0.773182 0.633525 0.028913 
0.801227 0.597815 0.025528 
0.826180 0.562955 0.022541 
0.848364 0.529042 0.019829 
0.868019 0.496228 0.017333 
0.885329 0.464722 0.015029 
0.900444 0.434781 0.012913 
0.913507 0.406674 0.010992 
0.924673 0.380650 0.009274 
0.934109 0.356903 0.007767 
0.942000 0.335550 0.006471 
0.948537 0.316619 0.005381 
0.953911 0.300057 0.004483 
0.958300 0.285740 0.003758 
0.961868 0.273494 0.003186 
0.964759 0.263121 0.002745 
0.967093 0.254412 0.002412 
0.968970 0.247169 0.002170 
0.970470 0.241215 0.002001 
0.971652 0.236409 0.001891 
0.972560 0.232647 0.001828 
0.973218 0.229877 0.001803 
0.973636 0.228101 0.001807 
0.973803 0.227386 0.001831 
0.973689 0.227875 0.001865 
0.973237 0.229798 0.001896 
0.972358 0.233486 0.001902 
0.970922 0.239388 0.001856 
0.968736 0.248087 0.001712 
0.965529 0.260294 0.001407 
0.960915 0.276842 0.000857 
0.954369 0.298631 -0.000049 
0.945188 0.326524 -0.001438 
0.932490 0.361178 -0.003442 
0.915261 0.402815 -0.006172 
0.892479 0.450986 -0.009686 
0.863337 0.504435 -0.013977 
0.827478 0.561178 -0.018987 
0.785134 0.618832 -0.024707 
0.737090 0.675066 -0.031370 
0.684557 0.727874 -0.039765 
0.629379 0.775384 -0.051592 
0.575356 0.814969 -0.069222 
0.532343 0.841548 -0.091701 
0.536265 0.838455 0.097019 
0.574129 0.815400 0.074149 
0.619382 0.783055 0.056481 
0.663321 0.746970 0.045171 
0.703406 0.709780 0.037842 
0.739277 0.672609 0.032665 
0.771244 0.635895 0.028625 
0.799746 0.599809 0.025216 
0.825168 0.564452 0.022192 
0.847803 0.529956 0.019435 
0.867864 0.496514 0.016891 
0.885513 0.464387 0.014540 
0.900885 0.433881 0.012383 
0.914120 0.405309 0.010433 
0.925376 0.378950 0.008699 
0.934834 0.355013 0.007190 
0.942692 0.333613 0.005906 
0.949158 0.314764 0.004837 
0.954435 0.298391 0.003968 
0.958716 0.284347 0.003276 
0.962170 0.272436 0.002739 
0.964946 0.262440 0.002331 
0.967167 0.254135 0.002031 
0.968933 0.247316 0.001818 
0.970324 0.241803 0.001675 
0.971397 0.237457 0.001587 
0.972191 0.234183 0.001542 
0.972729 0.231939 0.001530 
0.973013 0.230744 0.001542 
0.973027 0.230687 0.001567 
0.972730 0.231933 0.001594 
0.972057 0.234739 0.001606 
0.970904 0.239465 0.001580 
0.969120 0.246585 0.001480 
0.966492 0.256695 0.001260 
0.962717 0.270508 0.000850 
0.957384 0.288818 0.000163 
0.949938 0.312439 -0.000907 
0.939668 0.342078 -0.002476 
0.925725 0.378168 -0.004654 
0.907189 0.420655 -0.007517 
0.883218 0.468832 -0.011088 
0.853238 0.521297 -0.015327 
0.817117 0.576119 -0.020172 
0.775206 0.631189 -0.025635 
0.728230 0.684586 -0.031993 
0.677184 0.734721 -0.040086 
0.623611 0.780027 -0.051642 
0.570997 0.818044 -0.069033 
0.528891 0.843763 -0.091308 
0.533371 0.840368 0.096423 
0.571273 0.817445 0.073699 
0.616645 0.785237 0.056143 
0.660794 0.749223 0.044896 
0.701178 0.711994 0.037595 
0.737423 0.674652 0.032420 
0.769825 0.637624 0.028364 
0.798796 0.601086 0.024922 
0.824690 0.565163 0.021853 
0.847770 0.530022 0.019043 
0.868220 0.495907 0.016443 
0.886177 0.463134 0.014040 
0.901765 0.432064 0.011841 
0.915123 0.403053 0.009862 
0.926418 0.376409 0.008115 
0.935846 0.352347 0.006609 
0.943624 0.330976 0.005341 
0.949977 0.312289 0.004299 
0.955124 0.296186 0.003463 
0.959266 0.282489 0.002808 
0.962582 0.270980 0.002308 
0.965224 0.261418 0.001936 
0.967316 0.253570 0.001668 
0.968958 0.247220 0.001484 
0.970228 0.242189 0.001365 
0.971181 0.238341 0.001297 
0.971852 0.235590 0.001268 
0.972258 0.233908 0.001266 
0.972396 0.233331 0.001282 
0.972243 0.233968 0.001305 
0.971751 0.236007 0.001319 
0.970839 0.239729 0.001307 
0.969391 0.245518 0.001240 
0.967239 0.253866 0.001082 
0.964145 0.265373 0.000778 
0.959786 0.280732 0.000259 
0.953724 0.300683 -0.000562 
0.945392 0.325932 -0.001785 
0.934090 0.357021 -0.003512 
0.919022 0.394163 -0.005826 
0.899385 0.437070 -0.008775 
0.874510 0.484850 -0.012351 
0.844026 0.536048 -0.016498 
0.807955 0.588864 -0.021159 
0.766686 0.641480 -0.026375 
0.720841 0.692340 -0.032466 
0.671200 0.740179 -0.040310 
0.619054 0.783648 -0.051656 
0.567649 0.820385 -0.068872 
0.526302 0.845414 -0.090999 
0.530853 0.842019 0.095910 
0.568807 0.819197 0.073315 
0.614320 0.787078 0.055856 
0.658703 0.751076 0.044662 
0.699411 0.713742 0.037382 
0.736057 0.676153 0.032203 
0.768916 0.638730 0.028121 
0.798373 0.601660 0.024638 
0.824747 0.565092 0.021515 
0.848268 0.529239 0.018643 
0.869086 0.494403 0.015980 
0.887317 0.460962 0.013521 
0.903075 0.429334 0.011279 
0.916503 0.399919 0.009273 
0.927782 0.373047 0.007518 
0.937127 0.348937 0.006020 
0.944777 0.327679 0.004775 
0.950976 0.309241 0.003765 
0.955958 0.293488 0.002967 
0.959935 0.280214 0.002352 
0.963090 0.269172 0.001891 
0.965580 0.260102 0.001556 
0.967529 0.252758 0.001321 
0.969035 0.246919 0.001165 
0.970174 0.242407 0.001070 
0.970997 0.239091 0.001020 
0.971535 0.236895 0.001004 
0.971800 0.235806 0.001009 
0.971782 0.235878 0.001026 
0.971451 0.237238 0.001040 
0.970748 0.240098 0.001037 
0.969583 0.244759 0.000995 
0.967825 0.251623 0.000882 
0.965287 0.261189 0.000658 
0.961715 0.274052 0.000268 
0.956762 0.290871 -0.000360 
0.949978 0.312313 -0.001309 
0.940795 0.338966 -0.002670 
0.928541 0.371203 -0.004527 
0.912491 0.409038 -0.006942 
0.891965 0.451996 -0.009934 
0.866455 0.499073 -0.013476 
0.835748 0.548834 -0.017505 
0.799958 0.599653 -0.021976 
0.759459 0.649996 -0.026964 
0.714744 0.698615 -0.032826 
0.666399 0.744496 -0.040469 
0.615507 0.786437 -0.051655 
0.565132 0.822131 -0.068745 
0.524420 0.846608 -0.090769 
0.528679 0.843436 0.095472 
0.566703 0.820683 0.072989 
0.612380 0.788605 0.055614 
0.657028 0.752554 0.044465 
0.698092 0.715041 0.037197 
0.735173 0.677124 0.032005 
0.768519 0.639218 0.027890 
0.798484 0.601524 0.024355 
0.825349 0.564226 0.021168 
0.849303 0.527591 0.018225 
0.870466 0.491985 0.015493 
0.888930 0.457859 0.012975 
0.904807 0.425689 0.010690 
0.918246 0.395916 0.008660 
0.929448 0.368887 0.006903 
0.938655 0.344814 0.005421 
0.946129 0.323762 0.004205 
0.952134 0.305663 0.003233 
0.956919 0.290346 0.002478 
0.960704 0.277568 0.001907 
0.963680 0.267057 0.001488 
0.966002 0.258533 0.001190 
0.967795 0.251738 0.000988 
0.969155 0.246449 0.000860 
0.970154 0.242488 0.000786 
0.970839 0.239732 0.000752 
0.971236 0.238119 0.000746 
0.971351 0.237650 0.000756 
0.971168 0.238395 0.000769 
0.970648 0.240501 0.000771 
0.969725 0.244200 0.000746 
0.968295 0.249810 0.000668 
0.966213 0.257744 0.000505 
0.963279 0.268502 0.000212 
0.959220 0.282659 -0.000266 
0.953678 0.300828 -0.001000 
0.946194 0.323592 -0.002068 
0.936213 0.351414 -0.003549 
0.923106 0.384506 -0.005510 
0.906229 0.422712 -0.007991 
0.885022 0.465420 -0.010991 
0.859117 0.511575 -0.014469 
0.828413 0.559817 -0.018364 
0.793067 0.608713 -0.022651 
0.753401 0.656989 -0.027434 
0.709775 0.703650 -0.033102 
0.662604 0.747869 -0.040585 