# OOMMF: rectangular mesh v0.99 
# Segment count: 1 
# Begin: Segment 
# Begin: Header 
# Title: model.omf 
# Desc: 
# meshunit: unknown 
# xbase: 0 
# ybase: 0 
# zbase: 0 
# xstepsize: 1
# ystepsize: 1 
# zstepsize: 1 
# xnodes: 50 
# ynodes: 50 
# znodes: 4 
# xmin: -0.5 
# ymin: -0.5 
# zmin: -0.5 
# xmax: 49.500000 
# ymax: 49.500000 
# zmax: 3.500000 
# valueunit: Ms 
# valuemultiplier: 1 
# ValueRangeMaxMag:  1. 
# ValueRangeMinMag:  1e-8 
# End: Header 
# Begin: data text 
0.753235 0.639200 0.155115 
0.790434 0.597198 0.136269 
0.826692 0.549858 0.119315 
0.856836 0.504577 0.105988 
0.880881 0.463617 0.095432 
0.899919 0.427338 0.086767 
0.915075 0.395386 0.079424 
0.927269 0.367197 0.073071 
0.937199 0.342202 0.067499 
0.945384 0.319898 0.062568 
0.952206 0.299868 0.058171 
0.957948 0.281772 0.054227 
0.962821 0.265344 0.050671 
0.966985 0.250377 0.047453 
0.970559 0.236711 0.044533 
0.973638 0.224220 0.041880 
0.976297 0.212804 0.039467 
0.978597 0.202381 0.037275 
0.980588 0.192880 0.035284 
0.982312 0.184233 0.033481 
0.983808 0.176376 0.031848 
0.985106 0.169246 0.030373 
0.986235 0.162778 0.029041 
0.987221 0.156906 0.027838 
0.988085 0.151568 0.026750 
0.988846 0.146698 0.025765 
0.989520 0.142237 0.024870 
0.990122 0.138127 0.024053 
0.990664 0.134317 0.023305 
0.991156 0.130760 0.022616 
0.991606 0.127417 0.021979 
0.992019 0.124260 0.021388 
0.992401 0.121268 0.020840 
0.992754 0.118435 0.020335 
0.993077 0.115771 0.019876 
0.993369 0.113309 0.019468 
0.993625 0.111105 0.019122 
0.993835 0.109253 0.018853 
0.993987 0.107893 0.018681 
0.994060 0.107223 0.018628 
0.994027 0.107517 0.018713 
0.993846 0.109138 0.018939 
0.993460 0.112545 0.019260 
0.992790 0.118271 0.019503 
0.991737 0.126839 0.019207 
0.990209 0.138523 0.017274 
0.988187 0.152833 0.011354 
0.985854 0.167581 -0.002919 
0.983558 0.177839 -0.031427 
0.981347 0.177832 -0.073029 
0.728368 0.669831 0.144241 
0.766854 0.630661 0.119174 
0.806309 0.582997 0.099903 
0.839449 0.536484 0.086658 
0.865979 0.494102 0.077101 
0.887056 0.456375 0.069671 
0.903904 0.422988 0.063547 
0.917520 0.393390 0.058315 
0.928658 0.367023 0.053751 
0.937876 0.343391 0.049720 
0.945587 0.322082 0.046129 
0.952099 0.302765 0.042909 
0.957640 0.285176 0.040006 
0.962383 0.269114 0.037380 
0.966461 0.254419 0.034997 
0.969977 0.240970 0.032833 
0.973015 0.228669 0.030867 
0.975642 0.217433 0.029083 
0.977915 0.207191 0.027467 
0.979882 0.197875 0.026005 
0.981586 0.189418 0.024685 
0.983064 0.181750 0.023497 
0.984348 0.174804 0.022427 
0.985466 0.168508 0.021465 
0.986445 0.162793 0.020599 
0.987306 0.157588 0.019818 
0.988068 0.152828 0.019112 
0.988747 0.148451 0.018472 
0.989358 0.144399 0.017889 
0.989911 0.140624 0.017356 
0.990416 0.137085 0.016867 
0.990879 0.133751 0.016418 
0.991305 0.130605 0.016007 
0.991697 0.127644 0.015634 
0.992053 0.124885 0.015302 
0.992371 0.122371 0.015017 
0.992642 0.120178 0.014789 
0.992855 0.118426 0.014631 
0.992990 0.117295 0.014559 
0.993020 0.117039 0.014590 
0.992902 0.118017 0.014735 
0.992574 0.120715 0.014989 
0.991941 0.125776 0.015291 
0.990859 0.134015 0.015453 
0.989114 0.146387 0.014991 
0.986400 0.163867 0.012762 
0.982317 0.187118 0.006297 
0.976391 0.215816 -0.009110 
0.968078 0.247431 -0.040033 
0.957671 0.274908 -0.085397 
0.701523 0.699788 0.134765 
0.739760 0.664309 0.106999 
0.781186 0.618330 0.086116 
0.817135 0.571850 0.072652 
0.846453 0.528650 0.063618 
0.870027 0.489700 0.056981 
0.889043 0.454896 0.051692 
0.904524 0.423796 0.047250 
0.917268 0.395898 0.043405 
0.927872 0.370744 0.040019 
0.936784 0.347945 0.037007 
0.944337 0.327186 0.034307 
0.950783 0.308215 0.031872 
0.956312 0.290840 0.029670 
0.961072 0.274909 0.027673 
0.965179 0.260308 0.025862 
0.968728 0.246942 0.024219 
0.971794 0.234732 0.022731 
0.974445 0.223606 0.021388 
0.976736 0.213496 0.020178 
0.978716 0.204330 0.019091 
0.980429 0.196035 0.018117 
0.981915 0.188536 0.017246 
0.983206 0.181755 0.016468 
0.984333 0.175613 0.015773 
0.985321 0.170035 0.015151 
0.986194 0.164947 0.014595 
0.986971 0.160281 0.014095 
0.987667 0.155975 0.013645 
0.988296 0.151976 0.013238 
0.988867 0.148242 0.012871 
0.989390 0.144743 0.012540 
0.989868 0.141464 0.012244 
0.990302 0.138411 0.011984 
0.990692 0.135614 0.011764 
0.991030 0.133135 0.011591 
0.991306 0.131079 0.011472 
0.991499 0.129611 0.011421 
0.991582 0.128973 0.011450 
0.991510 0.129511 0.011570 
0.991217 0.131717 0.011784 
0.990598 0.136273 0.012069 
0.989485 0.144107 0.012339 
0.987607 0.156459 0.012368 
0.984515 0.174916 0.011607 
0.979474 0.201379 0.008821 
0.971320 0.237774 0.001417 
0.958388 0.285053 -0.015400 
0.939091 0.340312 -0.047926 
0.916193 0.389579 -0.093908 
0.676558 0.725267 0.127505 
0.714478 0.692590 0.099194 
0.756969 0.648804 0.077795 
0.794950 0.603262 0.064264 
0.826615 0.560024 0.055502 
0.852486 0.520422 0.049290 
0.873603 0.484603 0.044464 
0.890956 0.452282 0.040467 
0.905347 0.423056 0.037030 
0.917394 0.396525 0.034013 
0.927567 0.372341 0.031330 
0.936222 0.350217 0.028925 
0.943629 0.329922 0.026758 
0.949995 0.311278 0.024797 
0.955483 0.294148 0.023020 
0.960219 0.278425 0.021410 
0.964310 0.264024 0.019953 
0.967842 0.250869 0.018638 
0.970889 0.238891 0.017455 
0.973518 0.228020 0.016395 
0.975786 0.218182 0.015449 
0.977743 0.209298 0.014607 
0.979434 0.201286 0.013860 
0.980901 0.194062 0.013198 
0.982176 0.187538 0.012613 
0.983293 0.181630 0.012095 
0.984275 0.176259 0.011637 
0.985146 0.171350 0.011231 
0.985925 0.166837 0.010871 
0.986625 0.162665 0.010552 
0.987259 0.158790 0.010270 
0.987835 0.155185 0.010023 
0.988356 0.151843 0.009810 
0.988824 0.148778 0.009634 
0.989233 0.146040 0.009499 
0.989574 0.143718 0.009411 
0.989829 0.141956 0.009379 
0.989968 0.140975 0.009412 
0.989950 0.141098 0.009520 
0.989705 0.142790 0.009706 
0.989130 0.146709 0.009958 
0.988053 0.153775 0.010228 
0.986196 0.165256 0.010388 
0.983087 0.182860 0.010149 
0.977918 0.208800 0.008878 
0.969328 0.245714 0.005254 
0.955149 0.296107 -0.003327 
0.932481 0.360586 -0.021354 
0.899536 0.433476 -0.054165 
0.863427 0.494783 -0.098406 
0.654564 0.746116 0.121888 
0.692346 0.715430 0.093895 
0.735490 0.673635 0.072600 
0.774878 0.629334 0.059187 
0.808339 0.586536 0.050621 
0.836101 0.546755 0.044655 
0.859042 0.510333 0.040087 
0.878079 0.477134 0.036336 
0.893990 0.446862 0.033125 
0.907393 0.419188 0.030310 
0.918769 0.393815 0.027807 
0.928484 0.370491 0.025563 
0.936822 0.349013 0.023539 
0.944002 0.329225 0.021709 
0.950196 0.311006 0.020051 
0.955544 0.294264 0.018551 
0.960160 0.278922 0.017197 
0.964140 0.264913 0.015979 
0.967569 0.252169 0.014889 
0.970519 0.240621 0.013917 
0.973058 0.230191 0.013055 
0.975242 0.220797 0.012294 
0.977125 0.212349 0.011625 
0.978751 0.204753 0.011038 
0.980162 0.197917 0.010525 
0.981392 0.191749 0.010076 
0.982471 0.186162 0.009685 
0.983425 0.181076 0.009344 
0.984273 0.176422 0.009046 
0.985033 0.172142 0.008789 
0.985716 0.168195 0.008568 
0.986332 0.164559 0.008382 
0.986882 0.161235 0.008232 
0.987365 0.158254 0.008119 
0.987774 0.155687 0.008049 
0.988092 0.153657 0.008027 
0.988293 0.152356 0.008060 
0.988335 0.152075 0.008155 
0.988155 0.153233 0.008315 
0.987652 0.156431 0.008530 
0.986667 0.162517 0.008767 
0.984939 0.172671 0.008943 
0.982033 0.188503 0.008876 
0.977203 0.212147 0.008202 
0.969184 0.246259 0.006205 
0.955886 0.293733 0.001529 
0.934191 0.356678 -0.008280 
0.900543 0.433919 -0.027124 
0.854315 0.516376 -0.059170 
0.807489 0.581260 -0.100488 
0.635634 0.763015 0.117381 
0.673402 0.733780 0.089981 
0.717011 0.693634 0.069042 
0.757395 0.650564 0.055846 
0.792200 0.608414 0.047457 
0.821456 0.568748 0.041658 
0.845905 0.532031 0.037248 
0.866384 0.498243 0.033644 
0.883633 0.467182 0.030564 
0.898255 0.438590 0.027866 
0.910727 0.412224 0.025465 
0.921419 0.387872 0.023311 
0.930620 0.365362 0.021367 
0.938558 0.344565 0.019608 
0.945412 0.325381 0.018017 
0.951329 0.307732 0.016578 
0.956431 0.291557 0.015283 
0.960825 0.276794 0.014122 
0.964603 0.263382 0.013088 
0.967846 0.251250 0.012171 
0.970627 0.240319 0.011364 
0.973014 0.230500 0.010657 
0.975064 0.221698 0.010041 
0.976829 0.213811 0.009507 
0.978354 0.206738 0.009045 
0.979680 0.200382 0.008647 
0.980838 0.194648 0.008305 
0.981857 0.189452 0.008012 
0.982760 0.184724 0.007763 
0.983563 0.180406 0.007553 
0.984280 0.176459 0.007379 
0.984918 0.172870 0.007242 
0.985478 0.169650 0.007141 
0.985957 0.166851 0.007078 
0.986340 0.164572 0.007059 
0.986605 0.162975 0.007087 
0.986714 0.162311 0.007168 
0.986608 0.162948 0.007303 
0.986196 0.165415 0.007484 
0.985334 0.170465 0.007685 
0.983792 0.179144 0.007845 
0.981190 0.192887 0.007837 
0.976892 0.213607 0.007418 
0.969824 0.243727 0.006154 
0.958213 0.286038 0.003276 
0.939298 0.343094 -0.002529 
0.909386 0.415736 -0.013425 
0.865205 0.500357 -0.032601 
0.808333 0.585323 -0.063196 
0.754651 0.648267 -0.101249 
0.619488 0.776734 0.113657 
0.657296 0.748606 0.086894 
0.701264 0.709804 0.066383 
0.742379 0.667846 0.053435 
0.778198 0.626390 0.045209 
0.808627 0.586992 0.039537 
0.834303 0.550178 0.035237 
0.855994 0.516012 0.031729 
0.874396 0.484362 0.028734 
0.890089 0.455038 0.026107 
0.903540 0.427845 0.023769 
0.915114 0.402613 0.021668 
0.925101 0.379206 0.019770 
0.933730 0.357521 0.018053 
0.941187 0.337484 0.016499 
0.947623 0.319035 0.015097 
0.953167 0.302127 0.013838 
0.957934 0.286707 0.012714 
0.962022 0.272720 0.011716 
0.965522 0.260094 0.010838 
0.968516 0.248748 0.010071 
0.971075 0.238588 0.009404 
0.973266 0.229511 0.008829 
0.975146 0.221408 0.008335 
0.976764 0.214171 0.007914 
0.978164 0.207695 0.007556 
0.979383 0.201881 0.007254 
0.980450 0.196642 0.007001 
0.981390 0.191905 0.006791 
0.982220 0.187615 0.006620 
0.982954 0.183739 0.006486 
0.983596 0.180273 0.006389 
0.984146 0.177245 0.006329 
0.984596 0.174728 0.006307 
0.984927 0.172856 0.006329 
0.985104 0.171839 0.006395 
0.985077 0.171989 0.006507 
0.984765 0.173766 0.006658 
0.984040 0.177816 0.006827 
0.982705 0.185048 0.006967 
0.980439 0.196701 0.006983 
0.976715 0.214435 0.006701 
0.970664 0.240371 0.005822 
0.960855 0.277024 0.003859 
0.945044 0.326943 0.000040 
0.920026 0.391798 -0.006821 
0.882116 0.470669 -0.018512 
0.829175 0.557726 -0.037541 
0.765229 0.640332 -0.066328 
0.708300 0.698609 -0.101270 
0.605748 0.787942 0.110527 
0.643608 0.760691 0.084364 
0.687858 0.722994 0.064275 
0.729528 0.682004 0.051571 
0.766127 0.641216 0.043492 
0.797485 0.602146 0.037924 
0.824162 0.565350 0.033707 
0.846868 0.530941 0.030267 
0.866259 0.498847 0.027329 
0.882889 0.468929 0.024751 
0.897207 0.441039 0.022451 
0.909572 0.415047 0.020383 
0.920267 0.390852 0.018512 
0.929522 0.368382 0.016819 
0.937523 0.347588 0.015287 
0.944425 0.328431 0.013907 
0.950365 0.310879 0.012671 
0.955461 0.294890 0.011572 
0.959821 0.280413 0.010602 
0.963543 0.267377 0.009754 
0.966715 0.255697 0.009017 
0.969418 0.245273 0.008384 
0.971722 0.235996 0.007843 
0.973692 0.227748 0.007384 
0.975381 0.220415 0.006997 
0.976836 0.213884 0.006674 
0.978097 0.208053 0.006407 
0.979194 0.202831 0.006188 
0.980154 0.198148 0.006012 
0.980994 0.193951 0.005875 
0.981726 0.190215 0.005776 
0.982353 0.186947 0.005713 
0.982873 0.184197 0.005687 
0.983270 0.182066 0.005700 
0.983517 0.180723 0.005752 
0.983570 0.180431 0.005844 
0.983359 0.181577 0.005969 
0.982774 0.184712 0.006111 
0.981647 0.190607 0.006234 
0.979711 0.200319 0.006264 
0.976538 0.215261 0.006071 
0.971433 0.237252 0.005437 
0.963274 0.268489 0.004019 
0.950298 0.311339 0.001310 
0.929918 0.367752 -0.003409 
0.898831 0.438155 -0.011133 
0.853939 0.519853 -0.023256 
0.794687 0.605582 -0.041746 
0.727050 0.683145 -0.068633 
0.669506 0.735929 -0.100852 
0.594040 0.797170 0.107874 
0.631946 0.770635 0.082249 
0.676420 0.733856 0.062549 
0.718522 0.693700 0.050069 
0.755737 0.653520 0.042122 
0.787842 0.614787 0.036640 
0.815345 0.578063 0.032487 
0.838908 0.543495 0.029098 
0.859151 0.511052 0.026200 
0.876600 0.480637 0.023653 
0.891688 0.452145 0.021379 
0.904760 0.425483 0.019329 
0.916092 0.400587 0.017473 
0.925910 0.377414 0.015791 
0.934399 0.355943 0.014272 
0.941717 0.336157 0.012905 
0.948005 0.318040 0.011685 
0.953388 0.301561 0.010604 
0.957980 0.286671 0.009656 
0.961888 0.273302 0.008832 
0.965206 0.261363 0.008123 
0.968023 0.250749 0.007518 
0.970415 0.241340 0.007007 
0.972451 0.233015 0.006580 
0.974189 0.225648 0.006225 
0.975679 0.219123 0.005933 
0.976963 0.213334 0.005696 
0.978073 0.208189 0.005508 
0.979036 0.203619 0.005363 
0.979868 0.199576 0.005257 
0.980581 0.196048 0.005188 
0.981174 0.193055 0.005155 
0.981641 0.190670 0.005158 
0.981959 0.189025 0.005197 
0.982091 0.188334 0.005271 
0.981978 0.188916 0.005374 
0.981529 0.191235 0.005494 
0.980600 0.195938 0.005602 
0.978972 0.203915 0.005641 
0.976299 0.216358 0.005513 
0.972029 0.234807 0.005053 
0.965289 0.261153 0.004009 
0.954716 0.297513 0.002014 
0.938284 0.345862 -0.001423 
0.913272 0.407292 -0.006919 
0.876650 0.480887 -0.015243 
0.826304 0.562555 -0.027447 
0.763230 0.644548 -0.045139 
0.694529 0.716030 -0.070220 
0.637968 0.763520 -0.100173 
0.584033 0.804830 0.105615 
0.621975 0.778891 0.080465 
0.666625 0.742884 0.061111 
0.709073 0.703443 0.048832 
0.746785 0.663800 0.041001 
0.779506 0.625382 0.035591 
0.807703 0.588748 0.031487 
0.831999 0.554064 0.028136 
0.852982 0.521328 0.025266 
0.871155 0.490481 0.022739 
0.886929 0.461451 0.020478 
0.900635 0.434185 0.018436 
0.912540 0.408652 0.016586 
0.922862 0.384841 0.014908 
0.931787 0.362759 0.013394 
0.939473 0.342412 0.012034 
0.946064 0.323799 0.010824 
0.951692 0.306900 0.009758 
0.956478 0.291671 0.008828 
0.960536 0.278040 0.008026 
0.963969 0.265913 0.007341 
0.966871 0.255176 0.006763 
0.969325 0.245703 0.006281 
0.971403 0.237362 0.005882 
0.973170 0.230022 0.005556 
0.974676 0.223561 0.005294 
0.975965 0.217869 0.005086 
0.977071 0.212857 0.004926 
0.978020 0.208457 0.004809 
0.978828 0.204630 0.004731 
0.979503 0.201375 0.004688 
0.980043 0.198733 0.004681 
0.980432 0.196799 0.004707 
0.980644 0.195743 0.004764 
0.980627 0.195825 0.004849 
0.980305 0.197426 0.004950 
0.979561 0.201086 0.005044 
0.978212 0.207548 0.005089 
0.975979 0.217809 0.005010 
0.972426 0.233164 0.004680 
0.966875 0.255222 0.003910 
0.958275 0.285839 0.002421 
0.945063 0.326887 -0.000150 
0.925076 0.379758 -0.004241 
0.895687 0.444565 -0.010335 
0.854442 0.519200 -0.018982 
0.800336 0.598751 -0.030980 
0.735559 0.675775 -0.047753 
0.667544 0.741156 -0.071225 
0.612773 0.783989 -0.099354 
0.575450 0.811238 0.103685 
0.613416 0.785804 0.078950 
0.658208 0.750450 0.059901 
0.700938 0.711619 0.047801 
0.739064 0.672442 0.040070 
0.772305 0.634302 0.034720 
0.801096 0.597750 0.030656 
0.826030 0.562963 0.027332 
0.847667 0.529964 0.024479 
0.866485 0.498719 0.021962 
0.882875 0.469194 0.019705 
0.897153 0.441367 0.017663 
0.909573 0.415243 0.015810 
0.920348 0.390844 0.014131 
0.929659 0.368205 0.012615 
0.937666 0.347356 0.011259 
0.944516 0.328310 0.010056 
0.950348 0.311057 0.009001 
0.955291 0.295556 0.008087 
0.959465 0.281732 0.007305 
0.962982 0.269484 0.006644 
0.965941 0.258690 0.006092 
0.968432 0.249215 0.005637 
0.970531 0.240918 0.005266 
0.972305 0.233662 0.004968 
0.973809 0.227319 0.004733 
0.975086 0.221779 0.004552 
0.976172 0.216953 0.004419 
0.977091 0.212778 0.004327 
0.977858 0.209227 0.004273 
0.978477 0.206311 0.004254 
0.978942 0.204093 0.004267 
0.979232 0.202698 0.004310 
0.979307 0.202331 0.004378 
0.979105 0.203305 0.004462 
0.978529 0.206061 0.004545 
0.977429 0.211216 0.004593 
0.975579 0.219600 0.004548 
0.972636 0.232294 0.004317 
0.968068 0.250659 0.003751 
0.961068 0.276298 0.002639 
0.950436 0.310919 0.000698 
0.934480 0.356007 -0.002408 
0.911040 0.412258 -0.007037 
0.877799 0.478838 -0.013529 
0.833038 0.552768 -0.022252 
0.776756 0.628892 -0.033848 
0.711854 0.700567 -0.049689 
0.645534 0.760350 -0.071790 
0.592844 0.799273 -0.098481 
0.568057 0.816640 0.102033 
0.606039 0.791635 0.077660 
0.650947 0.756836 0.058878 
0.693916 0.718525 0.046934 
0.732397 0.679743 0.039290 
0.766088 0.641836 0.033991 
0.795401 0.605342 0.029957 
0.820902 0.570447 0.026651 
0.843126 0.537189 0.023807 
0.862527 0.505563 0.021292 
0.879476 0.475562 0.019030 
0.894272 0.447201 0.016981 
0.907158 0.420518 0.015119 
0.918338 0.395569 0.013431 
0.927988 0.372418 0.011911 
0.936272 0.351118 0.010554 
0.943339 0.331697 0.009355 
0.949336 0.314153 0.008311 
0.954398 0.298445 0.007413 
0.958655 0.284493 0.006651 
0.962225 0.272190 0.006013 
0.965214 0.261402 0.005486 
0.967718 0.251985 0.005057 
0.969817 0.243790 0.004713 
0.971580 0.236672 0.004442 
0.973063 0.230500 0.004234 
0.974313 0.225163 0.004079 
0.975362 0.220575 0.003970 
0.976235 0.216680 0.003901 
0.976944 0.213462 0.003868 
0.977489 0.210950 0.003868 
0.977859 0.209229 0.003897 
0.978024 0.208456 0.003950 
0.977934 0.208877 0.004020 
0.977509 0.210853 0.004091 
0.976630 0.214890 0.004140 
0.975112 0.221673 0.004120 
0.972683 0.232103 0.003961 
0.968927 0.247321 0.003549 
0.963220 0.268700 0.002721 
0.954641 0.297758 0.001257 
0.941878 0.335954 -0.001116 
0.923202 0.384287 -0.004686 
0.896600 0.442735 -0.009715 
0.860210 0.509676 -0.016413 
0.813062 0.581640 -0.025017 
0.755910 0.653680 -0.036104 
0.691930 0.720156 -0.051070 
0.627777 0.775052 -0.072043 
0.577165 0.810772 -0.097615 
0.561665 0.821224 0.100614 
0.599657 0.796587 0.076556 
0.644666 0.762261 0.058009 
0.687844 0.724387 0.046202 
0.726639 0.685933 0.038633 
0.760732 0.648208 0.033376 
0.790515 0.611739 0.029364 
0.816530 0.576714 0.026068 
0.839290 0.543187 0.023225 
0.859227 0.511176 0.020703 
0.876689 0.480705 0.018431 
0.891958 0.451822 0.016367 
0.905265 0.424600 0.014490 
0.916805 0.399131 0.012790 
0.926751 0.375507 0.011261 
0.935268 0.353803 0.009901 
0.942511 0.334062 0.008707 
0.948633 0.316287 0.007672 
0.953778 0.300435 0.006789 
0.958085 0.286421 0.006048 
0.961678 0.274126 0.005433 
0.964672 0.263406 0.004932 
0.967166 0.254106 0.004530 
0.969244 0.246068 0.004213 
0.970977 0.239140 0.003968 
0.972424 0.233190 0.003785 
0.973630 0.228106 0.003653 
0.974627 0.223805 0.003567 
0.975439 0.220243 0.003519 
0.976073 0.217415 0.003504 
0.976526 0.215369 0.003519 
0.976780 0.214216 0.003558 
0.976795 0.214146 0.003614 
0.976509 0.215446 0.003676 
0.975824 0.218527 0.003722 
0.974593 0.223953 0.003720 
0.972598 0.232467 0.003614 
0.969511 0.245024 0.003317 
0.964850 0.262787 0.002704 
0.957904 0.287086 0.001601 
0.947660 0.319282 -0.000210 
0.932754 0.360502 -0.002973 
0.911511 0.411217 -0.006915 
0.882182 0.470751 -0.012203 
0.843419 0.536922 -0.018941 
0.794903 0.606122 -0.027294 
0.737857 0.673896 -0.037833 
0.675409 0.735606 -0.052023 
0.613552 0.786357 -0.072087 
0.564863 0.819488 -0.096798 
0.556118 0.825139 0.099393 
0.594119 0.800816 0.075610 
0.639218 0.766890 0.057268 
0.682587 0.729381 0.045580 
0.721669 0.691190 0.038076 
0.756132 0.653594 0.032853 
0.786350 0.617107 0.028857 
0.812844 0.581920 0.025564 
0.836104 0.548101 0.022715 
0.856538 0.515689 0.020180 
0.874476 0.484739 0.017889 
0.890180 0.455335 0.015804 
0.903868 0.427586 0.013907 
0.915725 0.401620 0.012191 
0.925925 0.377557 0.010651 
0.934632 0.355494 0.009287 
0.942010 0.335487 0.008096 
0.948218 0.317541 0.007072 
0.953411 0.301610 0.006206 
0.957736 0.287598 0.005485 
0.961325 0.275374 0.004895 
0.964298 0.264783 0.004420 
0.966759 0.255657 0.004045 
0.968797 0.247829 0.003754 
0.970483 0.241142 0.003535 
0.971878 0.235462 0.003376 
0.973025 0.230678 0.003267 
0.973956 0.226714 0.003201 
0.974691 0.223535 0.003171 
0.975234 0.221151 0.003171 
0.975578 0.219631 0.003197 
0.975694 0.219114 0.003240 
0.975534 0.219823 0.003292 
0.975021 0.222086 0.003335 
0.974038 0.226361 0.003344 
0.972409 0.233261 0.003275 
0.969877 0.243577 0.003064 
0.966064 0.258291 0.002613 
0.960421 0.278548 0.001785 
0.952165 0.305583 0.000406 
0.940230 0.340536 -0.001728 
0.923256 0.384155 -0.004822 
0.899709 0.436397 -0.009036 
0.868170 0.496056 -0.014454 
0.827792 0.560637 -0.021103 
0.778746 0.626662 -0.029125 
0.722467 0.690297 -0.039130 
0.661841 0.747793 -0.052657 
0.602208 0.795086 -0.072002 
0.555227 0.826134 -0.096054 
0.551290 0.828498 0.098339 
0.589301 0.804444 0.074796 
0.634489 0.770855 0.056634 
0.678039 0.733644 0.045051 
0.717393 0.695654 0.037603 
0.752206 0.658130 0.032406 
0.782837 0.621577 0.028420 
0.809786 0.586187 0.025123 
0.833520 0.552041 0.022261 
0.854425 0.519201 0.019705 
0.872808 0.487754 0.017389 
0.888913 0.457820 0.015278 
0.902944 0.429550 0.013357 
0.915080 0.403105 0.011620 
0.925491 0.378636 0.010068 
0.934347 0.356259 0.008699 
0.941817 0.336041 0.007512 
0.948073 0.317986 0.006500 
0.953279 0.302040 0.005652 
0.957589 0.288095 0.004955 
0.961146 0.276006 0.004390 
0.964075 0.265603 0.003943 
0.966483 0.256706 0.003595 
0.968462 0.249140 0.003330 
0.970085 0.242744 0.003136 
0.971412 0.237380 0.003000 
0.972486 0.232941 0.002912 
0.973337 0.229360 0.002864 
0.973981 0.226612 0.002849 
0.974418 0.224724 0.002861 
0.974633 0.223789 0.002892 
0.974591 0.223971 0.002934 
0.974232 0.225527 0.002973 
0.973463 0.228825 0.002988 
0.972144 0.234365 0.002947 
0.970072 0.242801 0.002798 
0.966951 0.254952 0.002468 
0.962353 0.271798 0.001849 
0.955672 0.294431 0.000802 
0.946077 0.323941 -0.000841 
0.932482 0.361202 -0.003262 
0.913594 0.406573 -0.006618 
0.888080 0.459557 -0.011006 
0.854875 0.518574 -0.016442 
0.813558 0.581032 -0.022915 
0.764617 0.643759 -0.030574 
0.709506 0.703558 -0.040086 
0.650780 0.757410 -0.053060 
0.593195 0.801847 -0.071845 
0.547694 0.831223 -0.095395 
0.547078 0.831393 0.097428 
0.585104 0.807566 0.074095 
0.630382 0.774256 0.056092 
0.674112 0.737282 0.044600 
0.713732 0.699431 0.037199 
0.748888 0.661922 0.032023 
0.779921 0.625250 0.028039 
0.807312 0.589607 0.024732 
0.831504 0.555089 0.021849 
0.852860 0.521784 0.019266 
0.871663 0.489813 0.016919 
0.888139 0.459337 0.014776 
0.902478 0.430545 0.012826 
0.914852 0.403639 0.011068 
0.925431 0.378797 0.009502 
0.934392 0.356154 0.008130 
0.941914 0.335782 0.006948 
0.948179 0.317681 0.005950 
0.953362 0.301786 0.005123 
0.957628 0.287974 0.004450 
0.961126 0.276083 0.003913 
0.963987 0.265927 0.003494 
0.966323 0.257314 0.003173 
0.968226 0.250061 0.002936 
0.969771 0.244001 0.002766 
0.971017 0.238997 0.002652 
0.972005 0.234948 0.002583 
0.972762 0.231793 0.002551 
0.973300 0.229522 0.002548 
0.973616 0.228180 0.002567 
0.973686 0.227881 0.002599 
0.973465 0.228819 0.002633 
0.972883 0.231283 0.002651 
0.971828 0.235676 0.002629 
0.970140 0.242533 0.002526 
0.967585 0.252536 0.002285 
0.963829 0.266514 0.001824 
0.958403 0.285418 0.001032 
0.950656 0.310248 -0.000230 
0.939730 0.341911 -0.002116 
0.924564 0.380997 -0.004777 
0.903979 0.427497 -0.008324 
0.876875 0.480549 -0.012797 
0.842521 0.538357 -0.018167 
0.800823 0.598403 -0.024408 
0.752432 0.657906 -0.031702 
0.698697 0.714255 -0.040778 
0.641817 0.765003 -0.053304 
0.586062 0.807092 -0.071656 
0.541823 0.835126 -0.094827 
0.543398 0.833894 0.096639 
0.581447 0.810258 0.073492 
0.626822 0.777175 0.055626 
0.670737 0.740376 0.044215 
0.710626 0.702604 0.036853 
0.746126 0.665050 0.031691 
0.777560 0.628198 0.027703 
0.805388 0.592246 0.024379 
0.830031 0.557305 0.021470 
0.851823 0.523491 0.018852 
0.871025 0.490962 0.016467 
0.887844 0.459923 0.014287 
0.902454 0.430610 0.012305 
0.915025 0.403260 0.010523 
0.925729 0.378081 0.008944 
0.934751 0.355223 0.007570 
0.942283 0.334758 0.006397 
0.948517 0.316679 0.005416 
0.953643 0.300904 0.004612 
0.957835 0.287292 0.003966 
0.961248 0.275662 0.003459 
0.964020 0.265811 0.003069 
0.966265 0.257536 0.002777 
0.968076 0.250642 0.002565 
0.969529 0.244963 0.002419 
0.970681 0.240362 0.002325 
0.971570 0.236742 0.002274 
0.972221 0.234055 0.002255 
0.972641 0.232303 0.002261 
0.972820 0.231551 0.002283 
0.972728 0.231937 0.002311 
0.972311 0.233681 0.002330 
0.971482 0.237102 0.002320 
0.970115 0.242633 0.002251 
0.968027 0.250838 0.002077 
0.964955 0.262411 0.001734 
0.960532 0.278169 0.001136 
0.954251 0.299008 0.000171 
0.945436 0.325806 -0.001292 
0.933230 0.359265 -0.003391 
0.916629 0.399691 -0.006242 
0.894602 0.446753 -0.009912 
0.866291 0.499332 -0.014396 
0.831249 0.555553 -0.019638 
0.789603 0.613083 -0.025622 
0.742047 0.669556 -0.032572 
0.689757 0.722864 -0.041274 
0.634599 0.770991 -0.053440 
0.580447 0.811156 -0.071462 
0.537276 0.838113 -0.094349 
0.540185 0.836058 0.095958 
0.578265 0.812579 0.072972 
0.623749 0.779672 0.055228 
0.667860 0.742992 0.043886 
0.708030 0.705236 0.036556 
0.743882 0.667573 0.031401 
0.775724 0.630477 0.027403 
0.803994 0.594151 0.024055 
0.829083 0.558726 0.021111 
0.851302 0.524351 0.018452 
0.870885 0.491226 0.016023 
0.888016 0.459605 0.013801 
0.902862 0.429770 0.011785 
0.915586 0.401998 0.009979 
0.926369 0.376523 0.008388 
0.935407 0.353504 0.007014 
0.942904 0.333013 0.005853 
0.949070 0.315027 0.004893 
0.954105 0.299445 0.004116 
0.958193 0.286102 0.003500 
0.961498 0.274795 0.003024 
0.964160 0.265307 0.002664 
0.966297 0.257419 0.002401 
0.968002 0.250932 0.002215 
0.969350 0.245675 0.002092 
0.970395 0.241515 0.002017 
0.971174 0.238363 0.001981 
0.971707 0.236180 0.001973 
0.971997 0.234986 0.001984 
0.972026 0.234865 0.002005 
0.971757 0.235976 0.002023 
0.971124 0.238567 0.002021 
0.970029 0.242982 0.001976 
0.968327 0.249680 0.001851 
0.965812 0.259239 0.001598 
0.962197 0.272353 0.001148 
0.957085 0.289808 0.000411 
0.949944 0.312419 -0.000721 
0.940089 0.340922 -0.002368 
0.926687 0.375805 -0.004644 
0.908824 0.417110 -0.007634 
0.885630 0.464252 -0.011365 
0.856473 0.515950 -0.015801 
0.821127 0.570364 -0.020879 
0.779846 0.625406 -0.026601 
0.733286 0.679107 -0.033237 
0.682422 0.729772 -0.041625 
0.628828 0.775702 -0.053508 
0.576062 0.814292 -0.071281 
0.533789 0.840382 -0.093956 
0.537384 0.837928 0.095369 
0.575507 0.814575 0.072525 
0.621115 0.781795 0.054888 
0.665440 0.745176 0.043605 
0.705908 0.707373 0.036300 
0.742130 0.669532 0.031146 
0.774395 0.632121 0.027131 
0.803115 0.595350 0.023751 
0.828655 0.559374 0.020764 
0.851293 0.524380 0.018056 
0.871236 0.490617 0.015577 
0.888650 0.458392 0.013310 
0.903691 0.428038 0.011257 
0.916523 0.399871 0.009427 
0.927336 0.374147 0.007827 
0.936341 0.351033 0.006458 
0.943760 0.330588 0.005313 
0.949818 0.312771 0.004378 
0.954729 0.297455 0.003631 
0.958686 0.284450 0.003049 
0.961860 0.273530 0.002606 
0.964394 0.264459 0.002278 
0.966407 0.257008 0.002043 
0.967993 0.250970 0.001883 
0.969224 0.246174 0.001781 
0.970152 0.242491 0.001724 
0.970811 0.239840 0.001700 
0.971216 0.238196 0.001700 
0.971363 0.237595 0.001713 
0.971230 0.238139 0.001728 
0.970769 0.240010 0.001732 
0.969905 0.243478 0.001703 
0.968525 0.248911 0.001615 
0.966468 0.256784 0.001429 
0.963507 0.267681 0.001091 
0.959332 0.282280 0.000530 
0.953524 0.301317 -0.000343 
0.945538 0.325508 -0.001631 
0.934696 0.355433 -0.003438 
0.920213 0.391374 -0.005855 
0.901281 0.433144 -0.008935 
0.877194 0.479970 -0.012675 
0.847510 0.530506 -0.017023 
0.812164 0.583017 -0.021914 
0.771461 0.635688 -0.027384 
0.725967 0.686901 -0.033745 
0.676457 0.735291 -0.041873 
0.624256 0.779383 -0.053535 
0.572682 0.816686 -0.071124 
0.531162 0.842080 -0.093645 
0.534953 0.839539 0.094863 
0.573133 0.816281 0.072143 
0.618886 0.783581 0.054598 
0.663448 0.746965 0.043365 
0.704238 0.709047 0.036078 
0.740854 0.670954 0.030918 
0.773563 0.633149 0.026878 
0.802750 0.595854 0.023458 
0.828746 0.559252 0.020420 
0.851796 0.523576 0.017656 
0.872079 0.489131 0.015120 
0.889742 0.456284 0.012803 
0.904933 0.425420 0.010713 
0.917822 0.396893 0.008862 
0.928613 0.370978 0.007256 
0.937536 0.347839 0.005897 
0.944832 0.327520 0.004774 
0.950744 0.309954 0.003868 
0.955498 0.294981 0.003156 
0.959298 0.282383 0.002610 
0.962320 0.271912 0.002202 
0.964709 0.263312 0.001907 
0.966585 0.256343 0.001702 
0.968039 0.250793 0.001566 
0.969143 0.246493 0.001484 
0.969945 0.243319 0.001442 
0.970474 0.241201 0.001429 
0.970741 0.240126 0.001433 
0.970736 0.240145 0.001445 
0.970429 0.241382 0.001450 
0.969764 0.244039 0.001433 
0.968655 0.248405 0.001373 
0.966976 0.254866 0.001237 
0.964548 0.263905 0.000984 
0.961128 0.276101 0.000557 
0.956387 0.292103 -0.000115 
0.949891 0.312579 -0.001118 
0.941094 0.338137 -0.002545 
0.929340 0.369197 -0.004486 
0.913912 0.405853 -0.007007 
0.894111 0.447731 -0.010135 
0.869386 0.493940 -0.013844 
0.839449 0.543138 -0.018074 
0.804332 0.593744 -0.022774 
0.764336 0.644210 -0.028010 
0.719916 0.693222 -0.034132 
0.671658 0.739667 -0.042050 
0.620685 0.782230 -0.053543 
0.570128 0.818482 -0.070997 
0.529238 0.843316 -0.093409 
0.532859 0.840919 0.094431 
0.571113 0.817724 0.071818 
0.617036 0.785055 0.054353 
0.661864 0.748381 0.043161 
0.703007 0.710277 0.035885 
0.740049 0.671851 0.030711 
0.773231 0.633565 0.026637 
0.802904 0.595658 0.023168 
0.829363 0.558349 0.020070 
0.852818 0.521924 0.017240 
0.873416 0.486754 0.014643 
0.891288 0.453271 0.012274 
0.906579 0.421914 0.010148 
0.919470 0.393073 0.008278 
0.930183 0.367034 0.006673 
0.938972 0.343953 0.005329 
0.946100 0.323848 0.004234 
0.951827 0.306617 0.003364 
0.956394 0.292066 0.002690 
0.960013 0.279947 0.002183 
0.962863 0.269984 0.001813 
0.965092 0.261905 0.001551 
0.966819 0.255460 0.001374 
0.968132 0.250435 0.001262 
0.969101 0.246663 0.001198 
0.969768 0.244026 0.001170 
0.970159 0.242465 0.001164 
0.970280 0.241983 0.001170 
0.970114 0.242647 0.001176 
0.969624 0.244599 0.001167 
0.968744 0.248058 0.001126 
0.967379 0.253331 0.001028 
0.965389 0.260814 0.000839 
0.962581 0.270994 0.000516 
0.958697 0.284430 -0.000000 
0.953393 0.301730 -0.000780 
0.946231 0.323485 -0.001903 
0.936674 0.350187 -0.003452 
0.924103 0.382104 -0.005500 
0.907874 0.419164 -0.008090 
0.887403 0.460858 -0.011229 
0.862268 0.506233 -0.014876 
0.832297 0.554005 -0.018973 
0.797571 0.602768 -0.023486 
0.758352 0.651222 -0.028511 
0.714972 0.698305 -0.034431 
0.667853 0.743097 -0.042179 