# OOMMF: rectangular mesh v0.99 
# Segment count: 1 
# Begin: Segment 
# Begin: Header 
# Title: model.omf 
# Desc: 
# meshunit: unknown 
# xbase: 0 
# ybase: 0 
# zbase: 0 
# xstepsize: 1
# ystepsize: 1 
# zstepsize: 1 
# xnodes: 50 
# ynodes: 50 
# znodes: 4 
# xmin: -0.5 
# ymin: -0.5 
# zmin: -0.5 
# xmax: 49.500000 
# ymax: 49.500000 
# zmax: 3.500000 
# valueunit: Ms 
# valuemultiplier: 1 
# ValueRangeMaxMag:  1. 
# ValueRangeMinMag:  1e-8 
# End: Header 
# Begin: data text 
0.753279 0.639155 0.155084 
0.790478 0.597147 0.136237 
0.826732 0.549804 0.119286 
0.856868 0.504528 0.105968 
0.880901 0.463580 0.095426 
0.899925 0.427323 0.086778 
0.915066 0.395400 0.079457 
0.927244 0.367249 0.073127 
0.937158 0.342297 0.067580 
0.945329 0.320039 0.062671 
0.952140 0.300053 0.058294 
0.957874 0.281997 0.054365 
0.962742 0.265603 0.050820 
0.966904 0.250659 0.047607 
0.970480 0.237005 0.044685 
0.973565 0.224513 0.042024 
0.976231 0.213084 0.039598 
0.978540 0.202636 0.037389 
0.980541 0.193100 0.035379 
0.982276 0.184411 0.033553 
0.983782 0.176508 0.031899 
0.985091 0.169329 0.030401 
0.986229 0.162812 0.029047 
0.987223 0.156894 0.027824 
0.988094 0.151511 0.026718 
0.988861 0.146603 0.025717 
0.989540 0.142108 0.024809 
0.990146 0.137971 0.023981 
0.990690 0.134140 0.023224 
0.991183 0.130568 0.022529 
0.991633 0.127218 0.021887 
0.992046 0.124059 0.021294 
0.992427 0.121072 0.020747 
0.992777 0.118250 0.020244 
0.993098 0.115604 0.019789 
0.993387 0.113164 0.019388 
0.993639 0.110988 0.019051 
0.993845 0.109169 0.018793 
0.993993 0.107847 0.018635 
0.994062 0.107219 0.018598 
0.994023 0.107559 0.018702 
0.993835 0.109233 0.018953 
0.993441 0.112701 0.019305 
0.992760 0.118502 0.019592 
0.991693 0.127165 0.019358 
0.990141 0.138974 0.017517 
0.988086 0.153455 0.011730 
0.985710 0.168436 -0.002360 
0.983373 0.178992 -0.030643 
0.981156 0.179288 -0.072037 
0.728418 0.669783 0.144212 
0.766901 0.630608 0.119145 
0.806351 0.582943 0.099878 
0.839482 0.536436 0.086640 
0.865998 0.494068 0.077096 
0.887059 0.456366 0.069683 
0.903891 0.423012 0.063580 
0.917489 0.393456 0.058370 
0.928609 0.367135 0.053828 
0.937811 0.343552 0.049818 
0.945510 0.322292 0.046245 
0.952012 0.303018 0.043039 
0.957548 0.285466 0.040145 
0.962289 0.269427 0.037522 
0.966370 0.254744 0.035137 
0.969892 0.241293 0.032965 
0.972939 0.228975 0.030987 
0.975577 0.217711 0.029186 
0.977862 0.207430 0.027551 
0.979842 0.198067 0.026069 
0.981558 0.189558 0.024729 
0.983048 0.181836 0.023519 
0.984342 0.174835 0.022430 
0.985470 0.168488 0.021450 
0.986457 0.162724 0.020567 
0.987325 0.157476 0.019772 
0.988092 0.152680 0.019055 
0.988775 0.148273 0.018405 
0.989388 0.144199 0.017814 
0.989943 0.140409 0.017275 
0.990448 0.136862 0.016782 
0.990911 0.133528 0.016332 
0.991335 0.130388 0.015921 
0.991724 0.127440 0.015550 
0.992078 0.124701 0.015222 
0.992391 0.122213 0.014944 
0.992658 0.120052 0.014724 
0.992866 0.118338 0.014576 
0.992997 0.117249 0.014516 
0.993020 0.117040 0.014561 
0.992896 0.118071 0.014724 
0.992560 0.120829 0.015000 
0.991917 0.125959 0.015330 
0.990822 0.134280 0.015532 
0.989057 0.146756 0.015125 
0.986313 0.164370 0.012978 
0.982185 0.187801 0.006632 
0.976192 0.216737 -0.008607 
0.967797 0.248644 -0.039315 
0.957322 0.276404 -0.084472 
0.701578 0.699739 0.134739 
0.739811 0.664257 0.106973 
0.781230 0.618277 0.086094 
0.817167 0.571806 0.072638 
0.846469 0.528623 0.063617 
0.870025 0.489701 0.056996 
0.889021 0.454936 0.051727 
0.904481 0.423882 0.047305 
0.917205 0.396037 0.043482 
0.927791 0.370937 0.040116 
0.936688 0.348191 0.037121 
0.944231 0.327479 0.034433 
0.950671 0.308547 0.032007 
0.956199 0.291196 0.029807 
0.960963 0.275277 0.027807 
0.965078 0.260670 0.025987 
0.968638 0.247283 0.024331 
0.971718 0.235039 0.022828 
0.974383 0.223868 0.021466 
0.976689 0.213703 0.020236 
0.978684 0.204478 0.019128 
0.980412 0.196121 0.018134 
0.981910 0.188560 0.017245 
0.983213 0.181721 0.016449 
0.984349 0.175525 0.015739 
0.985346 0.169900 0.015105 
0.986225 0.164772 0.014537 
0.987006 0.160073 0.014028 
0.987704 0.155743 0.013571 
0.988335 0.151728 0.013159 
0.988907 0.147987 0.012788 
0.989428 0.144488 0.012456 
0.989904 0.141218 0.012161 
0.990335 0.138182 0.011903 
0.990721 0.135408 0.011688 
0.991054 0.132960 0.011520 
0.991324 0.130943 0.011410 
0.991512 0.129519 0.011368 
0.991588 0.128930 0.011409 
0.991509 0.129524 0.011543 
0.991207 0.131792 0.011774 
0.990578 0.136417 0.012080 
0.989452 0.144331 0.012376 
0.987556 0.156777 0.012440 
0.984436 0.175349 0.011728 
0.979353 0.201958 0.009014 
0.971132 0.238535 0.001715 
0.958101 0.286038 -0.014951 
0.938674 0.341548 -0.047282 
0.915660 0.391031 -0.093069 
0.676615 0.725217 0.127483 
0.714531 0.692539 0.099172 
0.757012 0.648756 0.077777 
0.794979 0.603225 0.064255 
0.826625 0.560009 0.055506 
0.852474 0.520439 0.049310 
0.873568 0.484663 0.044503 
0.890897 0.452395 0.040527 
0.905264 0.423226 0.037112 
0.917291 0.396755 0.034114 
0.927447 0.372629 0.031447 
0.936091 0.350555 0.029054 
0.943493 0.330300 0.026894 
0.949860 0.311681 0.024934 
0.955353 0.294560 0.023153 
0.960100 0.278828 0.021534 
0.964204 0.264401 0.020063 
0.967753 0.251205 0.018731 
0.970818 0.239174 0.017529 
0.973466 0.228241 0.016448 
0.975751 0.218335 0.015481 
0.977725 0.209381 0.014619 
0.979432 0.201300 0.013853 
0.980911 0.194010 0.013175 
0.982198 0.187426 0.012575 
0.983323 0.181467 0.012045 
0.984313 0.176052 0.011576 
0.985189 0.171108 0.011162 
0.985971 0.166570 0.010795 
0.986673 0.162381 0.010471 
0.987307 0.158500 0.010186 
0.987881 0.154897 0.009938 
0.988399 0.151566 0.009726 
0.988863 0.148523 0.009553 
0.989267 0.145813 0.009423 
0.989602 0.143528 0.009341 
0.989850 0.141810 0.009318 
0.989982 0.140881 0.009361 
0.989955 0.141063 0.009482 
0.989701 0.142820 0.009682 
0.989114 0.146812 0.009951 
0.988024 0.153959 0.010241 
0.986149 0.165532 0.010427 
0.983014 0.183243 0.010220 
0.977808 0.209311 0.008993 
0.969159 0.246375 0.005431 
0.954890 0.296943 -0.003058 
0.932094 0.361610 -0.020955 
0.898990 0.434677 -0.053594 
0.862750 0.496110 -0.097662 
0.654621 0.746069 0.121871 
0.692397 0.715383 0.093878 
0.735529 0.673593 0.072587 
0.774900 0.629307 0.059183 
0.808339 0.586536 0.050631 
0.836076 0.546791 0.044682 
0.858990 0.510418 0.040133 
0.877999 0.477277 0.036404 
0.893884 0.447067 0.033214 
0.907265 0.419458 0.030418 
0.918623 0.394146 0.027931 
0.928327 0.370875 0.025698 
0.936660 0.349438 0.023681 
0.943842 0.329674 0.021850 
0.950044 0.311461 0.020187 
0.955406 0.294706 0.018677 
0.960039 0.279332 0.017307 
0.964039 0.265275 0.016071 
0.967489 0.252470 0.014960 
0.970462 0.240851 0.013966 
0.973021 0.230345 0.013083 
0.975225 0.220872 0.012301 
0.977125 0.212347 0.011613 
0.978767 0.204681 0.011009 
0.980190 0.197780 0.010481 
0.981431 0.191555 0.010020 
0.982518 0.185921 0.009618 
0.983477 0.180798 0.009269 
0.984328 0.176118 0.008965 
0.985090 0.171822 0.008704 
0.985773 0.167870 0.008480 
0.986386 0.164239 0.008294 
0.986932 0.160930 0.008145 
0.987411 0.157974 0.008035 
0.987813 0.155441 0.007970 
0.988124 0.153454 0.007955 
0.988316 0.152206 0.007998 
0.988350 0.151984 0.008105 
0.988159 0.153210 0.008278 
0.987644 0.156485 0.008509 
0.986644 0.162655 0.008765 
0.984898 0.172903 0.008961 
0.981967 0.188841 0.008919 
0.977103 0.212605 0.008275 
0.969033 0.246852 0.006318 
0.955658 0.294473 0.001695 
0.933852 0.357570 -0.008035 
0.900060 0.434944 -0.026768 
0.853675 0.517492 -0.058669 
0.806735 0.582418 -0.099839 
0.635687 0.762973 0.117369 
0.673447 0.733740 0.089969 
0.717042 0.693602 0.069035 
0.757406 0.650551 0.055849 
0.792186 0.608430 0.047473 
0.821414 0.568807 0.041692 
0.845832 0.532143 0.037302 
0.866281 0.498418 0.033720 
0.883501 0.467424 0.030662 
0.898100 0.438901 0.027982 
0.910553 0.412599 0.025597 
0.921234 0.388302 0.023453 
0.930432 0.365833 0.021515 
0.938373 0.345058 0.019755 
0.945238 0.325876 0.018157 
0.951172 0.308209 0.016706 
0.956296 0.291996 0.015394 
0.960714 0.277177 0.014213 
0.964516 0.263695 0.013157 
0.967784 0.251484 0.012217 
0.970590 0.240468 0.011387 
0.972999 0.230564 0.010659 
0.975068 0.221678 0.010023 
0.976850 0.213714 0.009472 
0.978390 0.206572 0.008995 
0.979727 0.200155 0.008584 
0.980893 0.194372 0.008232 
0.981918 0.189139 0.007931 
0.982824 0.184384 0.007676 
0.983629 0.180050 0.007462 
0.984345 0.176101 0.007286 
0.984980 0.172519 0.007149 
0.985536 0.169318 0.007049 
0.986008 0.166549 0.006991 
0.986384 0.164311 0.006977 
0.986640 0.162764 0.007014 
0.986739 0.162160 0.007106 
0.986622 0.162866 0.007253 
0.986196 0.165412 0.007450 
0.985319 0.170549 0.007668 
0.983759 0.179325 0.007848 
0.981133 0.193175 0.007861 
0.976802 0.214013 0.007467 
0.969689 0.244262 0.006231 
0.958012 0.286709 0.003389 
0.939003 0.343900 -0.002370 
0.908968 0.416656 -0.013200 
0.864645 0.501346 -0.032284 
0.807642 0.586325 -0.062758 
0.753881 0.649250 -0.100688 
0.619534 0.776699 0.113651 
0.657332 0.748575 0.086888 
0.701284 0.709785 0.066383 
0.742376 0.667849 0.053444 
0.778166 0.626427 0.045232 
0.808564 0.587076 0.039579 
0.834207 0.550320 0.035300 
0.855865 0.516220 0.031814 
0.874237 0.484642 0.028840 
0.889905 0.455390 0.026233 
0.903337 0.428264 0.023910 
0.914901 0.403087 0.021819 
0.924887 0.379720 0.019925 
0.933523 0.358056 0.018205 
0.940993 0.338016 0.016643 
0.947449 0.319543 0.015227 
0.953019 0.302589 0.013949 
0.957813 0.287106 0.012803 
0.961931 0.273040 0.011782 
0.965459 0.260327 0.010880 
0.968480 0.248889 0.010088 
0.971064 0.238636 0.009400 
0.973276 0.229469 0.008804 
0.975174 0.221284 0.008293 
0.976808 0.213974 0.007857 
0.978220 0.207435 0.007486 
0.979448 0.201570 0.007174 
0.980521 0.196292 0.006913 
0.981464 0.191529 0.006697 
0.982295 0.187226 0.006523 
0.983027 0.183349 0.006388 
0.983666 0.179894 0.006291 
0.984211 0.176889 0.006233 
0.984654 0.174409 0.006216 
0.984975 0.172584 0.006244 
0.985142 0.171624 0.006320 
0.985103 0.171843 0.006444 
0.984777 0.173699 0.006610 
0.984036 0.177839 0.006796 
0.982682 0.185169 0.006955 
0.980392 0.196932 0.006992 
0.976638 0.214784 0.006732 
0.970545 0.240849 0.005878 
0.960678 0.277635 0.003942 
0.944787 0.327684 0.000155 
0.919664 0.392650 -0.006666 
0.881629 0.471589 -0.018303 
0.828564 0.558653 -0.037256 
0.764525 0.641211 -0.065945 
0.707556 0.699433 -0.100786 
0.605783 0.787916 0.110527 
0.643632 0.760671 0.084365 
0.687863 0.722988 0.064281 
0.729507 0.682025 0.051587 
0.766076 0.641275 0.043524 
0.797399 0.602257 0.037975 
0.824041 0.565523 0.033778 
0.846712 0.531185 0.030362 
0.866071 0.499166 0.027445 
0.882676 0.469323 0.024885 
0.896976 0.441500 0.022601 
0.909332 0.415564 0.020542 
0.920028 0.391407 0.018674 
0.929293 0.368954 0.016977 
0.937311 0.348152 0.015435 
0.944238 0.328965 0.014039 
0.950206 0.311359 0.012783 
0.955334 0.295299 0.011660 
0.959726 0.280735 0.010665 
0.963479 0.267604 0.009790 
0.966681 0.255824 0.009029 
0.969411 0.245301 0.008373 
0.971739 0.235929 0.007811 
0.973728 0.227595 0.007334 
0.975434 0.220185 0.006932 
0.976901 0.213589 0.006597 
0.978171 0.207706 0.006319 
0.979274 0.202446 0.006093 
0.980237 0.197737 0.005912 
0.981078 0.193529 0.005772 
0.981807 0.189795 0.005672 
0.982431 0.186543 0.005610 
0.982944 0.183822 0.005587 
0.983332 0.181732 0.005605 
0.983569 0.180443 0.005665 
0.983610 0.180218 0.005768 
0.983384 0.181442 0.005906 
0.982783 0.184666 0.006065 
0.981636 0.190661 0.006206 
0.979677 0.200484 0.006257 
0.976475 0.215546 0.006086 
0.971332 0.237666 0.005476 
0.963121 0.269038 0.004083 
0.950075 0.312019 0.001400 
0.929603 0.368548 -0.003291 
0.898406 0.439029 -0.010980 
0.853399 0.520747 -0.023060 
0.794053 0.606432 -0.041488 
0.726364 0.683909 -0.068296 
0.668809 0.736619 -0.100432 
0.594061 0.797153 0.107880 
0.631956 0.770627 0.082257 
0.676407 0.733866 0.062562 
0.718481 0.693740 0.050093 
0.755663 0.653603 0.042161 
0.787731 0.614925 0.036699 
0.815197 0.578268 0.032567 
0.838723 0.543774 0.029201 
0.858934 0.511410 0.026325 
0.876358 0.481071 0.023797 
0.891429 0.452648 0.021536 
0.904494 0.426041 0.019495 
0.915830 0.401179 0.017640 
0.925660 0.378019 0.015954 
0.934171 0.356535 0.014422 
0.941518 0.336712 0.013038 
0.947838 0.318534 0.011795 
0.953256 0.301974 0.010689 
0.957884 0.286990 0.009714 
0.961826 0.273518 0.008863 
0.965177 0.261472 0.008128 
0.968022 0.250753 0.007500 
0.970439 0.241245 0.006968 
0.972496 0.232829 0.006522 
0.974251 0.225384 0.006152 
0.975754 0.218793 0.005848 
0.977047 0.212951 0.005602 
0.978163 0.207769 0.005407 
0.979128 0.203175 0.005257 
0.979961 0.199124 0.005148 
0.980670 0.195601 0.005078 
0.981259 0.192629 0.005047 
0.981717 0.190278 0.005054 
0.982025 0.188681 0.005099 
0.982145 0.188052 0.005182 
0.982019 0.188709 0.005298 
0.981553 0.191115 0.005432 
0.980605 0.195918 0.005558 
0.978953 0.204007 0.005617 
0.976251 0.216571 0.005512 
0.971946 0.235151 0.005076 
0.965159 0.261633 0.004057 
0.954523 0.298129 0.002086 
0.938012 0.346601 -0.001327 
0.912901 0.408124 -0.006797 
0.876173 0.481761 -0.015092 
0.825731 0.563405 -0.027259 
0.762595 0.645316 -0.044902 
0.693877 0.716691 -0.069919 
0.637327 0.764103 -0.099805 
0.584039 0.804824 0.105627 
0.621968 0.778896 0.080478 
0.666594 0.742910 0.061130 
0.709010 0.703503 0.048863 
0.746687 0.663908 0.041047 
0.779369 0.625550 0.035657 
0.807526 0.588986 0.031576 
0.831785 0.554379 0.028248 
0.852736 0.521724 0.025399 
0.870885 0.490954 0.022891 
0.886643 0.461993 0.020643 
0.900344 0.434780 0.018608 
0.912256 0.409278 0.016758 
0.922595 0.385475 0.015074 
0.931545 0.363374 0.013546 
0.939263 0.342982 0.012167 
0.945891 0.324300 0.010933 
0.951558 0.307313 0.009839 
0.956383 0.291981 0.008881 
0.960478 0.278240 0.008050 
0.963945 0.266000 0.007339 
0.966877 0.255153 0.006737 
0.969357 0.245577 0.006233 
0.971457 0.237142 0.005817 
0.973241 0.229722 0.005476 
0.974760 0.223194 0.005201 
0.976058 0.217451 0.004984 
0.977170 0.212403 0.004818 
0.978121 0.207982 0.004696 
0.978929 0.204150 0.004616 
0.979600 0.200905 0.004573 
0.980133 0.198288 0.004568 
0.980514 0.196395 0.004599 
0.980714 0.195394 0.004664 
0.980683 0.195546 0.004759 
0.980345 0.197231 0.004873 
0.979581 0.200988 0.004984 
0.978209 0.207560 0.005049 
0.975949 0.217942 0.004991 
0.972363 0.233429 0.004686 
0.966768 0.255626 0.003940 
0.958112 0.286383 0.002476 
0.944829 0.327563 -0.000070 
0.924754 0.380542 -0.004138 
0.895266 0.445415 -0.010209 
0.853925 0.520055 -0.018832 
0.799747 0.599546 -0.030800 
0.734939 0.676465 -0.047534 
0.666934 0.741731 -0.070954 
0.612188 0.784487 -0.099027 
0.575439 0.811244 0.103702 
0.613389 0.785823 0.078969 
0.658155 0.750494 0.059927 
0.700852 0.711701 0.047838 
0.738941 0.672575 0.040123 
0.772141 0.634499 0.034794 
0.800891 0.598020 0.030752 
0.825787 0.563313 0.027451 
0.847392 0.530396 0.024620 
0.866187 0.499230 0.022121 
0.882564 0.469772 0.019877 
0.896839 0.441996 0.017841 
0.909270 0.415900 0.015987 
0.920066 0.391503 0.014299 
0.929406 0.368838 0.012768 
0.937449 0.347936 0.011390 
0.944340 0.328813 0.010161 
0.950215 0.311464 0.009077 
0.955199 0.295853 0.008134 
0.959413 0.281911 0.007323 
0.962965 0.269545 0.006634 
0.965956 0.258637 0.006058 
0.968473 0.249055 0.005581 
0.970595 0.240663 0.005192 
0.972386 0.233326 0.004880 
0.973903 0.226917 0.004633 
0.975190 0.221327 0.004444 
0.976281 0.216466 0.004304 
0.977201 0.212274 0.004208 
0.977966 0.208722 0.004153 
0.978581 0.205821 0.004134 
0.979038 0.203633 0.004150 
0.979318 0.202285 0.004199 
0.979380 0.201981 0.004275 
0.979162 0.203033 0.004371 
0.978567 0.205882 0.004469 
0.977444 0.211145 0.004535 
0.975569 0.219648 0.004512 
0.972593 0.232475 0.004304 
0.967985 0.250979 0.003763 
0.960935 0.276762 0.002677 
0.950239 0.311522 0.000762 
0.934204 0.356733 -0.002320 
0.910672 0.413072 -0.006927 
0.877336 0.479689 -0.013398 
0.832495 0.553591 -0.022101 
0.776165 0.629630 -0.033673 
0.711259 0.701187 -0.049482 
0.644966 0.760855 -0.071542 
0.592310 0.799705 -0.098186 
0.568027 0.816658 0.102054 
0.605992 0.791669 0.077684 
0.650872 0.756898 0.058909 
0.693806 0.718628 0.046977 
0.732247 0.679901 0.039350 
0.765896 0.642061 0.034071 
0.795168 0.605644 0.030060 
0.820631 0.570831 0.026777 
0.842824 0.537657 0.023955 
0.862203 0.506109 0.021457 
0.879141 0.476174 0.019207 
0.893938 0.447861 0.017163 
0.906838 0.421201 0.015299 
0.918042 0.396249 0.013601 
0.927727 0.373065 0.012063 
0.936051 0.351703 0.010682 
0.943163 0.332197 0.009456 
0.949204 0.314549 0.008381 
0.954311 0.298723 0.007452 
0.958609 0.284648 0.006660 
0.962216 0.272221 0.005995 
0.965238 0.261316 0.005444 
0.967769 0.251790 0.004994 
0.969890 0.243498 0.004632 
0.971671 0.236299 0.004347 
0.973167 0.230062 0.004127 
0.974425 0.224677 0.003964 
0.975479 0.220058 0.003849 
0.976353 0.216149 0.003777 
0.977059 0.212934 0.003743 
0.977599 0.210442 0.003745 
0.977960 0.208758 0.003777 
0.978113 0.208039 0.003837 
0.978008 0.208531 0.003916 
0.977566 0.210594 0.004001 
0.976664 0.214733 0.004065 
0.975122 0.221633 0.004066 
0.972662 0.232193 0.003929 
0.968868 0.247551 0.003543 
0.963115 0.269076 0.002741 
0.954478 0.298280 0.001303 
0.941643 0.336610 -0.001044 
0.922883 0.385052 -0.004590 
0.896190 0.443566 -0.009599 
0.859715 0.510514 -0.016278 
0.812505 0.582424 -0.024865 
0.755328 0.654361 -0.035933 
0.691363 0.720714 -0.050874 
0.627250 0.775500 -0.071812 
0.576675 0.811153 -0.097346 
0.561616 0.821255 0.100640 
0.599589 0.796635 0.076585 
0.644568 0.762341 0.058045 
0.687709 0.724512 0.046250 
0.726462 0.686116 0.038699 
0.760512 0.648461 0.033462 
0.790253 0.612071 0.029474 
0.816232 0.577130 0.026201 
0.838962 0.543688 0.023379 
0.858877 0.511756 0.020875 
0.876332 0.481349 0.018613 
0.891606 0.452509 0.016553 
0.904931 0.425306 0.014672 
0.916499 0.399827 0.012959 
0.926484 0.376162 0.011411 
0.935045 0.354388 0.010026 
0.942336 0.334554 0.008802 
0.948505 0.316667 0.007736 
0.953697 0.300691 0.006821 
0.958047 0.286548 0.006049 
0.961679 0.274125 0.005407 
0.964706 0.263285 0.004881 
0.967227 0.253874 0.004458 
0.969327 0.245739 0.004124 
0.971078 0.238731 0.003865 
0.972537 0.232718 0.003671 
0.973751 0.227588 0.003532 
0.974753 0.223260 0.003441 
0.975564 0.219687 0.003390 
0.976195 0.216867 0.003375 
0.976642 0.214847 0.003392 
0.976885 0.213738 0.003436 
0.976887 0.213729 0.003500 
0.976584 0.215108 0.003572 
0.975878 0.218285 0.003633 
0.974623 0.223822 0.003648 
0.972599 0.232463 0.003563 
0.969478 0.245158 0.003291 
0.964773 0.263068 0.002704 
0.957774 0.287517 0.001629 
0.947466 0.319857 -0.000155 
0.932483 0.361203 -0.002892 
0.911154 0.412010 -0.006811 
0.881738 0.471585 -0.012080 
0.842902 0.537739 -0.018801 
0.794342 0.606864 -0.027139 
0.737290 0.674526 -0.037664 
0.674871 0.736113 -0.051835 
0.613060 0.786760 -0.071870 
0.564411 0.819829 -0.096548 
0.556049 0.825182 0.099422 
0.594029 0.800879 0.075642 
0.639097 0.766988 0.057309 
0.682428 0.729527 0.045634 
0.721467 0.691398 0.038148 
0.755886 0.653874 0.032945 
0.786061 0.617469 0.028973 
0.812519 0.582368 0.025703 
0.835750 0.548634 0.022875 
0.856166 0.516300 0.020356 
0.874099 0.485412 0.018075 
0.889812 0.456047 0.015993 
0.903521 0.428311 0.014090 
0.915413 0.402327 0.012359 
0.925655 0.378215 0.010798 
0.934410 0.356074 0.009407 
0.941839 0.335966 0.008185 
0.948097 0.317901 0.007128 
0.953339 0.301839 0.006229 
0.957707 0.287693 0.005478 
0.961335 0.275338 0.004860 
0.964342 0.264624 0.004361 
0.966831 0.255387 0.003965 
0.968890 0.247463 0.003657 
0.970594 0.240698 0.003425 
0.972000 0.234957 0.003256 
0.973155 0.230130 0.003140 
0.974089 0.226142 0.003070 
0.974823 0.222958 0.003038 
0.975362 0.220587 0.003039 
0.975698 0.219100 0.003067 
0.975802 0.218634 0.003116 
0.975627 0.219411 0.003176 
0.975096 0.221761 0.003232 
0.974089 0.226140 0.003256 
0.972433 0.233161 0.003207 
0.969868 0.243612 0.003018 
0.966015 0.258471 0.002592 
0.960324 0.278881 0.001792 
0.952010 0.306067 0.000442 
0.940004 0.341160 -0.001665 
0.922949 0.384893 -0.004733 
0.899316 0.437207 -0.008924 
0.867698 0.496885 -0.014323 
0.827261 0.561426 -0.020959 
0.778188 0.627363 -0.028969 
0.721918 0.690881 -0.038963 
0.661330 0.748257 -0.052474 
0.601747 0.795453 -0.071796 
0.554805 0.826444 -0.095818 
0.551200 0.828554 0.098371 
0.589190 0.804522 0.074833 
0.634344 0.770970 0.056679 
0.677855 0.733811 0.045110 
0.717164 0.695885 0.037679 
0.751934 0.658437 0.032504 
0.782523 0.621968 0.028541 
0.809436 0.586665 0.025267 
0.833143 0.552603 0.022426 
0.854032 0.519840 0.019886 
0.872414 0.488452 0.017579 
0.888532 0.458553 0.015469 
0.902589 0.430289 0.013540 
0.914763 0.403819 0.011787 
0.925221 0.379292 0.010211 
0.934128 0.356830 0.008814 
0.941652 0.336502 0.007594 
0.947961 0.318320 0.006548 
0.953216 0.302238 0.005667 
0.957571 0.288155 0.004938 
0.961167 0.275932 0.004346 
0.964129 0.265405 0.003875 
0.966565 0.256398 0.003506 
0.968566 0.248737 0.003226 
0.970206 0.242264 0.003020 
0.971544 0.236842 0.002875 
0.972625 0.232365 0.002780 
0.973478 0.228765 0.002729 
0.974120 0.226016 0.002713 
0.974551 0.224149 0.002726 
0.974757 0.223252 0.002761 
0.974702 0.223491 0.002809 
0.974326 0.225124 0.002858 
0.973535 0.228518 0.002886 
0.972191 0.234171 0.002862 
0.970089 0.242736 0.002734 
0.966930 0.255029 0.002428 
0.962288 0.272027 0.001836 
0.955554 0.294816 0.000817 
0.945894 0.324475 -0.000797 
0.932224 0.361868 -0.003189 
0.913254 0.407338 -0.006520 
0.887658 0.460375 -0.010887 
0.854382 0.519389 -0.016306 
0.813020 0.581791 -0.022766 
0.764066 0.644420 -0.030415 
0.708976 0.704102 -0.039919 
0.650294 0.757840 -0.052882 
0.592760 0.802186 -0.071647 
0.547297 0.831510 -0.095171 
0.546968 0.831461 0.097462 
0.584972 0.807658 0.074135 
0.630215 0.774389 0.056140 
0.673903 0.737468 0.044663 
0.713479 0.699684 0.037280 
0.748591 0.662254 0.032126 
0.779582 0.625667 0.028165 
0.806938 0.590112 0.024881 
0.831105 0.555679 0.022019 
0.852449 0.522449 0.019451 
0.871254 0.490534 0.017111 
0.887748 0.460087 0.014968 
0.902117 0.431295 0.013009 
0.914533 0.404355 0.011232 
0.925163 0.379447 0.009641 
0.934179 0.356710 0.008238 
0.941757 0.336220 0.007023 
0.948076 0.317987 0.005990 
0.953310 0.301950 0.005128 
0.957621 0.287997 0.004424 
0.961158 0.275970 0.003860 
0.964052 0.265690 0.003417 
0.966415 0.256968 0.003078 
0.968339 0.249622 0.002825 
0.969900 0.243488 0.002643 
0.971156 0.238430 0.002521 
0.972150 0.234347 0.002446 
0.972909 0.231177 0.002412 
0.973444 0.228911 0.002408 
0.973753 0.227595 0.002429 
0.973812 0.227342 0.002466 
0.973577 0.228345 0.002507 
0.972976 0.230894 0.002537 
0.971898 0.235390 0.002529 
0.970181 0.242369 0.002445 
0.967592 0.252509 0.002226 
0.963796 0.266636 0.001790 
0.958320 0.285696 0.001026 
0.950514 0.310682 -0.000206 
0.939519 0.342491 -0.002062 
0.924275 0.381698 -0.004695 
0.903608 0.428282 -0.008217 
0.876428 0.481367 -0.012670 
0.842014 0.539155 -0.018024 
0.800283 0.599131 -0.024255 
0.751892 0.658531 -0.031542 
0.698185 0.714764 -0.040613 
0.641354 0.765404 -0.053129 
0.585649 0.807408 -0.071464 
0.541447 0.835394 -0.094611 
0.543270 0.833973 0.096676 
0.581294 0.810364 0.073535 
0.626633 0.777323 0.055679 
0.670505 0.740582 0.044281 
0.710350 0.702879 0.036939 
0.745805 0.665405 0.031798 
0.777198 0.628641 0.027834 
0.804993 0.592777 0.024533 
0.829612 0.557920 0.021644 
0.851396 0.524178 0.019041 
0.870604 0.491702 0.016662 
0.887444 0.460688 0.014480 
0.902090 0.431367 0.012486 
0.914707 0.403975 0.010684 
0.925466 0.378722 0.009077 
0.934546 0.355760 0.007671 
0.942136 0.335170 0.006463 
0.948426 0.316952 0.005446 
0.953603 0.301032 0.004608 
0.957840 0.287276 0.003931 
0.961292 0.275509 0.003397 
0.964097 0.265535 0.002984 
0.966368 0.257151 0.002674 
0.968199 0.250168 0.002448 
0.969667 0.244419 0.002291 
0.970828 0.239768 0.002190 
0.971722 0.236118 0.002134 
0.972373 0.233422 0.002113 
0.972789 0.231681 0.002119 
0.972960 0.230962 0.002144 
0.972856 0.231400 0.002177 
0.972422 0.233216 0.002205 
0.971573 0.236730 0.002208 
0.970181 0.242374 0.002154 
0.968061 0.250708 0.002000 
0.964951 0.262425 0.001681 
0.960483 0.278338 0.001110 
0.954148 0.299335 0.000174 
0.945270 0.326288 -0.001259 
0.932990 0.359886 -0.003328 
0.916311 0.400421 -0.006151 
0.894205 0.447551 -0.009796 
0.865824 0.500145 -0.014261 
0.830733 0.556330 -0.019489 
0.789065 0.613782 -0.025465 
0.741519 0.670149 -0.032411 
0.689263 0.723344 -0.041109 
0.634154 0.771369 -0.053269 
0.580052 0.811455 -0.071276 
0.536916 0.838367 -0.094140 
0.540038 0.836148 0.095996 
0.578092 0.812698 0.073017 
0.623538 0.779836 0.055284 
0.667606 0.743216 0.043956 
0.707730 0.705532 0.036646 
0.743538 0.667950 0.031513 
0.775340 0.630943 0.027539 
0.803578 0.594707 0.024214 
0.828648 0.559365 0.021289 
0.850861 0.525060 0.018644 
0.870454 0.491982 0.016219 
0.887612 0.460380 0.013994 
0.902497 0.430529 0.011964 
0.915273 0.402707 0.010135 
0.926114 0.377148 0.008515 
0.935211 0.354019 0.007107 
0.942769 0.333395 0.005910 
0.948991 0.315265 0.004913 
0.954077 0.299533 0.004102 
0.958210 0.286044 0.003456 
0.961554 0.274602 0.002953 
0.964248 0.264990 0.002572 
0.966409 0.256997 0.002291 
0.968134 0.250424 0.002092 
0.969496 0.245101 0.001959 
0.970549 0.240895 0.001878 
0.971332 0.237719 0.001837 
0.971865 0.235533 0.001828 
0.972149 0.234357 0.001841 
0.972169 0.234275 0.001865 
0.971886 0.235446 0.001890 
0.971235 0.238117 0.001898 
0.970117 0.242632 0.001866 
0.968386 0.249450 0.001759 
0.965837 0.259146 0.001527 
0.962181 0.272410 0.001101 
0.957019 0.290024 0.000392 
0.949820 0.312795 -0.000709 
0.939897 0.341449 -0.002325 
0.926421 0.376463 -0.004572 
0.908478 0.417864 -0.007533 
0.885210 0.465056 -0.011241 
0.855990 0.516754 -0.015659 
0.820605 0.571120 -0.020725 
0.779312 0.626078 -0.026441 
0.732770 0.679673 -0.033075 
0.681944 0.730228 -0.041462 
0.628399 0.776060 -0.053340 
0.575682 0.814576 -0.071100 
0.533443 0.840624 -0.093754 
0.537218 0.838029 0.095409 
0.575315 0.814706 0.072573 
0.620885 0.781974 0.054946 
0.665166 0.745417 0.043678 
0.705587 0.707688 0.036394 
0.741765 0.669931 0.031263 
0.773991 0.632609 0.027271 
0.802681 0.595929 0.023914 
0.828204 0.560035 0.020946 
0.850841 0.525107 0.018250 
0.870799 0.491387 0.015774 
0.888244 0.459174 0.013501 
0.903329 0.428797 0.011432 
0.916216 0.400570 0.009578 
0.927090 0.374754 0.007946 
0.936157 0.351520 0.006542 
0.943638 0.330937 0.005360 
0.949753 0.312971 0.004388 
0.954714 0.297503 0.003607 
0.958716 0.284351 0.002995 
0.961927 0.273296 0.002526 
0.964492 0.264104 0.002178 
0.966529 0.256550 0.001927 
0.968133 0.250430 0.001754 
0.969377 0.245573 0.001644 
0.970313 0.241849 0.001581 
0.970974 0.239180 0.001554 
0.971377 0.237539 0.001554 
0.971518 0.236962 0.001569 
0.971374 0.237551 0.001589 
0.970898 0.239490 0.001600 
0.970014 0.243046 0.001582 
0.968608 0.248587 0.001509 
0.966520 0.256588 0.001341 
0.963522 0.267628 0.001025 
0.959302 0.282382 0.000490 
0.953441 0.301580 -0.000354 
0.945393 0.325930 -0.001610 
0.934479 0.356001 -0.003386 
0.919921 0.392062 -0.005773 
0.900911 0.433915 -0.008826 
0.876753 0.480776 -0.012544 
0.847016 0.531299 -0.016874 
0.811640 0.583752 -0.021756 
0.770933 0.636334 -0.027222 
0.725463 0.687442 -0.033582 
0.675993 0.735726 -0.041711 
0.623841 0.779727 -0.053370 
0.572314 0.816959 -0.070947 
0.530827 0.842313 -0.093448 
0.534770 0.839651 0.094905 
0.572923 0.816423 0.072193 
0.618637 0.783773 0.054659 
0.663154 0.747221 0.043442 
0.703897 0.709380 0.036176 
0.740469 0.671373 0.031039 
0.773141 0.633659 0.027023 
0.802300 0.596453 0.023626 
0.828282 0.559933 0.020606 
0.851335 0.524319 0.017852 
0.871637 0.489912 0.015317 
0.889336 0.457069 0.012993 
0.904576 0.426174 0.010885 
0.917524 0.397578 0.009006 
0.928379 0.371562 0.007367 
0.937366 0.348296 0.005971 
0.944724 0.327832 0.004810 
0.950692 0.310112 0.003868 
0.955497 0.294986 0.003122 
0.959340 0.282242 0.002547 
0.962398 0.271637 0.002115 
0.964816 0.262919 0.001800 
0.966715 0.255851 0.001579 
0.968187 0.250224 0.001433 
0.969302 0.245868 0.001343 
0.970111 0.242659 0.001296 
0.970641 0.240528 0.001281 
0.970905 0.239462 0.001286 
0.970892 0.239512 0.001300 
0.970573 0.240802 0.001311 
0.969892 0.243533 0.001303 
0.968760 0.247995 0.001254 
0.967053 0.254571 0.001134 
0.964592 0.263745 0.000901 
0.961132 0.276090 0.000498 
0.956342 0.292251 -0.000147 
0.949789 0.312890 -0.001119 
0.940926 0.338604 -0.002515 
0.929100 0.369803 -0.004425 
0.913595 0.406568 -0.006916 
0.893719 0.448515 -0.010017 
0.868930 0.494746 -0.013705 
0.838947 0.543919 -0.017919 
0.803808 0.594460 -0.022612 
0.763816 0.644833 -0.027846 
0.719423 0.693741 -0.033970 
0.671207 0.740085 -0.041890 
0.620283 0.782560 -0.053381 
0.569772 0.818745 -0.070825 
0.528913 0.843541 -0.093217 
0.532661 0.841039 0.094475 
0.570887 0.817877 0.071871 
0.616769 0.785261 0.054417 
0.661551 0.748652 0.043242 
0.702648 0.710627 0.035986 
0.739646 0.672289 0.030836 
0.772791 0.634095 0.026786 
0.802439 0.596277 0.023339 
0.828888 0.559047 0.020258 
0.852350 0.522682 0.017438 
0.872973 0.487543 0.014840 
0.890886 0.454057 0.012461 
0.906230 0.422659 0.010314 
0.919183 0.393740 0.008415 
0.929963 0.367591 0.006775 
0.938816 0.344376 0.005393 
0.946006 0.324121 0.004259 
0.951790 0.306733 0.003352 
0.956406 0.292028 0.002646 
0.960067 0.279763 0.002111 
0.962952 0.269668 0.001717 
0.965209 0.261476 0.001437 
0.966957 0.254937 0.001246 
0.968287 0.249840 0.001124 
0.969265 0.246016 0.001054 
0.969938 0.243351 0.001022 
0.970330 0.241784 0.001015 
0.970446 0.241317 0.001022 
0.970271 0.242019 0.001032 
0.969767 0.244030 0.001030 
0.968869 0.247571 0.000998 
0.967480 0.252947 0.000914 
0.965459 0.260553 0.000742 
0.962615 0.270872 0.000440 
0.958687 0.284463 -0.000052 
0.953332 0.301924 -0.000803 
0.946109 0.323842 -0.001895 
0.936483 0.350695 -0.003412 
0.923839 0.382744 -0.005428 
0.907534 0.419902 -0.007989 
0.886992 0.461651 -0.011102 
0.861800 0.507035 -0.014730 
0.831790 0.554772 -0.018814 
0.797049 0.603464 -0.023321 
0.757840 0.651825 -0.028346 
0.714490 0.698806 -0.034269 
0.667414 0.743500 -0.042021 