# OOMMF: rectangular mesh v0.99 
# Segment count: 1 
# Begin: Segment 
# Begin: Header 
# Title: model.omf 
# Desc: 
# meshunit: unknown 
# xbase: 0 
# ybase: 0 
# zbase: 0 
# xstepsize: 1
# ystepsize: 1 
# zstepsize: 1 
# xnodes: 50 
# ynodes: 50 
# znodes: 4 
# xmin: -0.5 
# ymin: -0.5 
# zmin: -0.5 
# xmax: 49.500000 
# ymax: 49.500000 
# zmax: 3.500000 
# valueunit: Ms 
# valuemultiplier: 1 
# ValueRangeMaxMag:  1. 
# ValueRangeMinMag:  1e-8 
# End: Header 
# Begin: data text 
0.753235 0.639199 0.155115 
0.790434 0.597197 0.136268 
0.826693 0.549857 0.119315 
0.856837 0.504577 0.105987 
0.880882 0.463617 0.095432 
0.899919 0.427338 0.086766 
0.915075 0.395386 0.079424 
0.927268 0.367198 0.073072 
0.937198 0.342205 0.067501 
0.945382 0.319903 0.062570 
0.952204 0.299873 0.058173 
0.957946 0.281779 0.054230 
0.962819 0.265352 0.050675 
0.966982 0.250387 0.047458 
0.970556 0.236721 0.044538 
0.973636 0.224231 0.041885 
0.976295 0.212815 0.039472 
0.978595 0.202392 0.037279 
0.980586 0.192890 0.035289 
0.982310 0.184242 0.033485 
0.983806 0.176384 0.031852 
0.985105 0.169252 0.030376 
0.986234 0.162783 0.029042 
0.987221 0.156910 0.027838 
0.988085 0.151569 0.026750 
0.988846 0.146698 0.025764 
0.989520 0.142236 0.024868 
0.990123 0.138125 0.024051 
0.990665 0.134314 0.023303 
0.991157 0.130756 0.022613 
0.991606 0.127414 0.021976 
0.992020 0.124256 0.021385 
0.992402 0.121264 0.020838 
0.992754 0.118432 0.020333 
0.993077 0.115769 0.019874 
0.993369 0.113308 0.019466 
0.993625 0.111105 0.019121 
0.993835 0.109255 0.018853 
0.993987 0.107896 0.018681 
0.994060 0.107228 0.018629 
0.994026 0.107524 0.018715 
0.993845 0.109147 0.018942 
0.993459 0.112556 0.019264 
0.992788 0.118285 0.019509 
0.991735 0.126856 0.019216 
0.990205 0.138543 0.017286 
0.988183 0.152858 0.011373 
0.985849 0.167613 -0.002892 
0.983551 0.177881 -0.031389 
0.981341 0.177884 -0.072981 
0.728369 0.669830 0.144241 
0.766855 0.630660 0.119173 
0.806310 0.582996 0.099903 
0.839450 0.536484 0.086657 
0.865979 0.494101 0.077100 
0.887056 0.456375 0.069671 
0.903904 0.422989 0.063548 
0.917519 0.393392 0.058316 
0.928656 0.367026 0.053752 
0.937874 0.343395 0.049722 
0.945585 0.322088 0.046132 
0.952096 0.302773 0.042912 
0.957637 0.285186 0.040010 
0.962380 0.269125 0.037384 
0.966457 0.254431 0.035001 
0.969974 0.240982 0.032837 
0.973012 0.228681 0.030871 
0.975639 0.217445 0.029087 
0.977912 0.207203 0.027471 
0.979880 0.197885 0.026008 
0.981585 0.189426 0.024688 
0.983063 0.181758 0.023499 
0.984347 0.174810 0.022428 
0.985466 0.168512 0.021465 
0.986445 0.162795 0.020599 
0.987306 0.157588 0.019817 
0.988068 0.152827 0.019111 
0.988748 0.148448 0.018470 
0.989358 0.144396 0.017887 
0.989912 0.140620 0.017354 
0.990416 0.137081 0.016864 
0.990880 0.133747 0.016415 
0.991306 0.130601 0.016004 
0.991697 0.127640 0.015632 
0.992054 0.124882 0.015300 
0.992371 0.122370 0.015016 
0.992642 0.120178 0.014788 
0.992855 0.118428 0.014631 
0.992990 0.117299 0.014559 
0.993019 0.117045 0.014590 
0.992901 0.118025 0.014737 
0.992573 0.120726 0.014992 
0.991939 0.125790 0.015295 
0.990857 0.134031 0.015459 
0.989111 0.146406 0.014999 
0.986396 0.163890 0.012774 
0.982312 0.187147 0.006314 
0.976384 0.215852 -0.009085 
0.968068 0.247476 -0.039998 
0.957659 0.274963 -0.085352 
0.701524 0.699787 0.134765 
0.739760 0.664309 0.106998 
0.781187 0.618329 0.086116 
0.817135 0.571849 0.072652 
0.846453 0.528649 0.063618 
0.870027 0.489700 0.056981 
0.889042 0.454898 0.051692 
0.904523 0.423799 0.047250 
0.917266 0.395902 0.043406 
0.927870 0.370750 0.040021 
0.936781 0.347953 0.037009 
0.944334 0.327195 0.034309 
0.950779 0.308226 0.031876 
0.956308 0.290852 0.029674 
0.961068 0.274923 0.027678 
0.965175 0.260322 0.025866 
0.968724 0.246956 0.024223 
0.971791 0.234745 0.022736 
0.974442 0.223619 0.021392 
0.976733 0.213507 0.020181 
0.978714 0.204340 0.019094 
0.980428 0.196043 0.018119 
0.981914 0.188542 0.017247 
0.983205 0.181758 0.016468 
0.984333 0.175615 0.015773 
0.985322 0.170035 0.015151 
0.986195 0.164945 0.014593 
0.986971 0.160278 0.014093 
0.987667 0.155971 0.013642 
0.988296 0.151971 0.013236 
0.988868 0.148237 0.012868 
0.989391 0.144738 0.012537 
0.989868 0.141460 0.012241 
0.990303 0.138407 0.011982 
0.990692 0.135611 0.011763 
0.991030 0.133134 0.011589 
0.991305 0.131080 0.011472 
0.991499 0.129614 0.011421 
0.991581 0.128977 0.011450 
0.991510 0.129518 0.011571 
0.991216 0.131727 0.011785 
0.990596 0.136286 0.012071 
0.989483 0.144123 0.012343 
0.987604 0.156477 0.012373 
0.984511 0.174938 0.011614 
0.979468 0.201406 0.008832 
0.971312 0.237806 0.001432 
0.958377 0.285092 -0.015377 
0.939075 0.340359 -0.047894 
0.916174 0.389634 -0.093867 
0.676559 0.725266 0.127505 
0.714479 0.692589 0.099193 
0.756970 0.648803 0.077794 
0.794950 0.603261 0.064263 
0.826615 0.560024 0.055502 
0.852485 0.520422 0.049290 
0.873602 0.484605 0.044464 
0.890955 0.452285 0.040468 
0.905344 0.423060 0.037032 
0.917391 0.396532 0.034015 
0.927563 0.372350 0.031333 
0.936218 0.350228 0.028928 
0.943624 0.329934 0.026761 
0.949991 0.311292 0.024801 
0.955478 0.294163 0.023024 
0.960215 0.278441 0.021414 
0.964305 0.264039 0.019957 
0.967838 0.250884 0.018642 
0.970886 0.238905 0.017459 
0.973515 0.228033 0.016398 
0.975783 0.218193 0.015451 
0.977741 0.209307 0.014609 
0.979433 0.201292 0.013861 
0.980900 0.194065 0.013198 
0.982176 0.187539 0.012613 
0.983293 0.181629 0.012095 
0.984275 0.176257 0.011636 
0.985147 0.171346 0.011230 
0.985925 0.166832 0.010869 
0.986626 0.162659 0.010550 
0.987260 0.158784 0.010267 
0.987836 0.155179 0.010020 
0.988357 0.151837 0.009808 
0.988824 0.148774 0.009632 
0.989233 0.146037 0.009498 
0.989574 0.143717 0.009410 
0.989828 0.141957 0.009378 
0.989968 0.140978 0.009412 
0.989949 0.141104 0.009521 
0.989704 0.142799 0.009707 
0.989128 0.146721 0.009960 
0.988051 0.153790 0.010230 
0.986193 0.165274 0.010392 
0.983082 0.182882 0.010154 
0.977912 0.208827 0.008886 
0.969320 0.245745 0.005264 
0.955138 0.296144 -0.003312 
0.932466 0.360628 -0.021333 
0.899515 0.433523 -0.054136 
0.863401 0.494836 -0.098369 
0.654565 0.746115 0.121888 
0.692347 0.715429 0.093895 
0.735491 0.673634 0.072599 
0.774879 0.629333 0.059186 
0.808339 0.586536 0.050621 
0.836100 0.546756 0.044655 
0.859041 0.510335 0.040087 
0.878077 0.477138 0.036337 
0.893987 0.446867 0.033127 
0.907390 0.419196 0.030312 
0.918765 0.393825 0.027810 
0.928479 0.370503 0.025566 
0.936817 0.349027 0.023543 
0.943996 0.329241 0.021713 
0.950191 0.311023 0.020056 
0.955539 0.294282 0.018556 
0.960155 0.278940 0.017202 
0.964135 0.264929 0.015984 
0.967565 0.252185 0.014893 
0.970516 0.240635 0.013920 
0.973055 0.230203 0.013058 
0.975240 0.220806 0.012296 
0.977123 0.212355 0.011626 
0.978751 0.204757 0.011038 
0.980162 0.197919 0.010524 
0.981392 0.191748 0.010075 
0.982472 0.186159 0.009683 
0.983426 0.181071 0.009341 
0.984274 0.176416 0.009044 
0.985034 0.172135 0.008786 
0.985718 0.168188 0.008565 
0.986333 0.164553 0.008379 
0.986883 0.161229 0.008229 
0.987366 0.158250 0.008117 
0.987774 0.155684 0.008047 
0.988092 0.153656 0.008025 
0.988293 0.152358 0.008059 
0.988335 0.152079 0.008155 
0.988154 0.153240 0.008315 
0.987650 0.156442 0.008531 
0.986664 0.162531 0.008770 
0.984936 0.172689 0.008946 
0.982028 0.188525 0.008880 
0.977198 0.212173 0.008207 
0.969176 0.246290 0.006212 
0.955876 0.293768 0.001538 
0.934175 0.356718 -0.008266 
0.900523 0.433963 -0.027105 
0.854289 0.516423 -0.059144 
0.807459 0.581308 -0.100455 
0.635635 0.763014 0.117381 
0.673403 0.733780 0.089980 
0.717012 0.693633 0.069042 
0.757395 0.650564 0.055846 
0.792200 0.608414 0.047457 
0.821455 0.568749 0.041658 
0.845904 0.532033 0.037248 
0.866381 0.498248 0.033645 
0.883629 0.467188 0.030566 
0.898250 0.438600 0.027868 
0.910721 0.412236 0.025468 
0.921413 0.387886 0.023314 
0.930614 0.365378 0.021371 
0.938551 0.344583 0.019613 
0.945405 0.325399 0.018021 
0.951322 0.307752 0.016583 
0.956425 0.291576 0.015288 
0.960820 0.276813 0.014127 
0.964598 0.263399 0.013092 
0.967842 0.251265 0.012175 
0.970624 0.240331 0.011367 
0.973012 0.230510 0.010659 
0.975062 0.221704 0.010042 
0.976828 0.213814 0.009507 
0.978354 0.206739 0.009044 
0.979680 0.200380 0.008646 
0.980839 0.194644 0.008303 
0.981858 0.189447 0.008010 
0.982761 0.184717 0.007760 
0.983565 0.180398 0.007550 
0.984282 0.176452 0.007376 
0.984919 0.172862 0.007239 
0.985480 0.169644 0.007138 
0.985957 0.166847 0.007076 
0.986340 0.164569 0.007057 
0.986605 0.162975 0.007086 
0.986713 0.162313 0.007168 
0.986607 0.162953 0.007303 
0.986194 0.165424 0.007485 
0.985332 0.170478 0.007687 
0.983789 0.179161 0.007848 
0.981185 0.192908 0.007840 
0.976886 0.213632 0.007423 
0.969817 0.243758 0.006159 
0.958202 0.286073 0.003283 
0.939283 0.343133 -0.002520 
0.909367 0.415779 -0.013412 
0.865180 0.500401 -0.032584 
0.808303 0.585367 -0.063173 
0.754618 0.648310 -0.101220 
0.619489 0.776734 0.113657 
0.657297 0.748606 0.086893 
0.701264 0.709804 0.066383 
0.742379 0.667846 0.053435 
0.778197 0.626391 0.045208 
0.808625 0.586994 0.039537 
0.834301 0.550182 0.035238 
0.855990 0.516017 0.031731 
0.874391 0.484370 0.028736 
0.890084 0.455048 0.026110 
0.903533 0.427858 0.023772 
0.915107 0.402628 0.021672 
0.925094 0.379224 0.019775 
0.933723 0.357541 0.018058 
0.941179 0.337504 0.016504 
0.947615 0.319056 0.015102 
0.953161 0.302147 0.013843 
0.957928 0.286727 0.012718 
0.962017 0.272737 0.011720 
0.965518 0.260109 0.010842 
0.968513 0.248761 0.010073 
0.971073 0.238597 0.009406 
0.973265 0.229517 0.008830 
0.975145 0.221411 0.008335 
0.976764 0.214171 0.007913 
0.978165 0.207692 0.007555 
0.979384 0.201876 0.007252 
0.980452 0.196635 0.006998 
0.981392 0.191897 0.006788 
0.982222 0.187607 0.006617 
0.982955 0.183731 0.006483 
0.983597 0.180265 0.006386 
0.984148 0.177238 0.006326 
0.984597 0.174723 0.006305 
0.984927 0.172854 0.006327 
0.985104 0.171839 0.006394 
0.985077 0.171993 0.006506 
0.984763 0.173772 0.006658 
0.984038 0.177827 0.006828 
0.982702 0.185063 0.006969 
0.980435 0.196721 0.006986 
0.976710 0.214460 0.006705 
0.970656 0.240401 0.005827 
0.960845 0.277059 0.003865 
0.945030 0.326982 0.000048 
0.920008 0.391840 -0.006812 
0.882092 0.470713 -0.018500 
0.829147 0.557770 -0.037525 
0.765197 0.640373 -0.066307 
0.708266 0.698648 -0.101244 
0.605749 0.787942 0.110527 
0.643609 0.760691 0.084363 
0.687858 0.722994 0.064275 
0.729527 0.682005 0.051571 
0.766126 0.641217 0.043492 
0.797483 0.602149 0.037925 
0.824159 0.565354 0.033707 
0.846864 0.530948 0.030269 
0.866254 0.498856 0.027332 
0.882883 0.468941 0.024754 
0.897200 0.441053 0.022455 
0.909564 0.415064 0.020387 
0.920259 0.390872 0.018517 
0.929514 0.368404 0.016824 
0.937514 0.347610 0.015292 
0.944417 0.328454 0.013913 
0.950358 0.310901 0.012677 
0.955455 0.294911 0.011577 
0.959815 0.280431 0.010606 
0.963538 0.267393 0.009757 
0.966712 0.255710 0.009020 
0.969415 0.245283 0.008385 
0.971721 0.236001 0.007843 
0.973692 0.227751 0.007383 
0.975381 0.220414 0.006996 
0.976837 0.213880 0.006672 
0.978098 0.208047 0.006404 
0.979196 0.202824 0.006185 
0.980155 0.198139 0.006009 
0.980996 0.193941 0.005872 
0.981727 0.190206 0.005773 
0.982355 0.186939 0.005710 
0.982874 0.184190 0.005684 
0.983271 0.182061 0.005697 
0.983518 0.180720 0.005750 
0.983570 0.180432 0.005843 
0.983358 0.181582 0.005969 
0.982772 0.184721 0.006112 
0.981644 0.190620 0.006235 
0.979707 0.200337 0.006266 
0.976533 0.215284 0.006074 
0.971426 0.237280 0.005441 
0.963265 0.268523 0.004025 
0.950285 0.311377 0.001317 
0.929901 0.367795 -0.003401 
0.898809 0.438199 -0.011123 
0.853912 0.519898 -0.023245 
0.794656 0.605624 -0.041731 
0.727017 0.683183 -0.068615 
0.669472 0.735963 -0.100829 
0.594040 0.797170 0.107873 
0.631947 0.770635 0.082249 
0.676419 0.733856 0.062548 
0.718521 0.693701 0.050069 
0.755735 0.653522 0.042122 
0.787839 0.614790 0.036641 
0.815341 0.578068 0.032488 
0.838903 0.543503 0.029100 
0.859144 0.511062 0.026203 
0.876593 0.480651 0.023657 
0.891680 0.452161 0.021383 
0.904751 0.425503 0.019333 
0.916083 0.400608 0.017478 
0.925900 0.377438 0.015797 
0.934389 0.355967 0.014278 
0.941709 0.336182 0.012911 
0.947997 0.318064 0.011690 
0.953381 0.301583 0.010609 
0.957975 0.286691 0.009660 
0.961883 0.273318 0.008835 
0.965203 0.261376 0.008125 
0.968021 0.250758 0.007520 
0.970414 0.241346 0.007008 
0.972451 0.233016 0.006579 
0.974189 0.225647 0.006223 
0.975680 0.219119 0.005931 
0.976964 0.213327 0.005694 
0.978075 0.208181 0.005505 
0.979038 0.203609 0.005360 
0.979870 0.199566 0.005254 
0.980583 0.196038 0.005185 
0.981176 0.193047 0.005152 
0.981642 0.190663 0.005155 
0.981959 0.189020 0.005195 
0.982091 0.188332 0.005269 
0.981978 0.188918 0.005373 
0.981528 0.191241 0.005494 
0.980598 0.195948 0.005602 
0.978969 0.203931 0.005643 
0.976294 0.216379 0.005516 
0.972023 0.234833 0.005058 
0.965280 0.261185 0.004014 
0.954704 0.297550 0.002020 
0.938269 0.345904 -0.001416 
0.913251 0.407338 -0.006911 
0.876625 0.480933 -0.015233 
0.826275 0.562599 -0.027435 
0.763198 0.644587 -0.045125 
0.694496 0.716064 -0.070203 
0.637935 0.763550 -0.100152 
0.584034 0.804829 0.105614 
0.621976 0.778891 0.080464 
0.666625 0.742884 0.061110 
0.709071 0.703444 0.048832 
0.746783 0.663803 0.041001 
0.779503 0.625387 0.035592 
0.807698 0.588755 0.031489 
0.831993 0.554073 0.028138 
0.852975 0.521340 0.025269 
0.871147 0.490496 0.022743 
0.886920 0.461470 0.020482 
0.900625 0.434207 0.018441 
0.912529 0.408675 0.016591 
0.922852 0.384866 0.014914 
0.931777 0.362785 0.013400 
0.939463 0.342438 0.012040 
0.946055 0.323824 0.010830 
0.951684 0.306923 0.009763 
0.956472 0.291691 0.008832 
0.960531 0.278057 0.008029 
0.963966 0.265926 0.007343 
0.966869 0.255185 0.006764 
0.969324 0.245708 0.006281 
0.971403 0.237363 0.005881 
0.973170 0.230020 0.005555 
0.974677 0.223556 0.005291 
0.975966 0.217862 0.005083 
0.977073 0.212848 0.004923 
0.978022 0.208446 0.004806 
0.978830 0.204620 0.004727 
0.979505 0.201365 0.004685 
0.980044 0.198724 0.004677 
0.980434 0.196792 0.004704 
0.980644 0.195739 0.004762 
0.980627 0.195824 0.004847 
0.980305 0.197429 0.004949 
0.979559 0.201094 0.005044 
0.978209 0.207561 0.005090 
0.975975 0.217827 0.005012 
0.972421 0.233187 0.004684 
0.966867 0.255251 0.003914 
0.958264 0.285875 0.002427 
0.945049 0.326928 -0.000143 
0.925058 0.379803 -0.004233 
0.895664 0.444612 -0.010326 
0.854414 0.519246 -0.018973 
0.800305 0.598793 -0.030969 
0.735526 0.675812 -0.047740 
0.667511 0.741187 -0.071209 
0.612741 0.784016 -0.099335 
0.575450 0.811238 0.103685 
0.613415 0.785804 0.078950 
0.658207 0.750450 0.059901 
0.700936 0.711621 0.047801 
0.739062 0.672445 0.040070 
0.772301 0.634308 0.034721 
0.801090 0.597758 0.030658 
0.826023 0.562974 0.027334 
0.847659 0.529977 0.024482 
0.866475 0.498736 0.021966 
0.882864 0.469214 0.019710 
0.897141 0.441390 0.017669 
0.909561 0.415268 0.015816 
0.920337 0.390871 0.014137 
0.929648 0.368233 0.012622 
0.937656 0.347383 0.011265 
0.944507 0.328336 0.010062 
0.950341 0.311081 0.009006 
0.955285 0.295576 0.008091 
0.959461 0.281748 0.007308 
0.962978 0.269497 0.006646 
0.965939 0.258699 0.006093 
0.968431 0.249219 0.005637 
0.970531 0.240918 0.005265 
0.972306 0.233658 0.004966 
0.973810 0.227313 0.004730 
0.975088 0.221770 0.004549 
0.976174 0.216943 0.004415 
0.977093 0.212767 0.004323 
0.977860 0.209216 0.004269 
0.978479 0.206301 0.004250 
0.978944 0.204084 0.004263 
0.979233 0.202691 0.004307 
0.979308 0.202328 0.004375 
0.979105 0.203305 0.004460 
0.978528 0.206065 0.004544 
0.977427 0.211226 0.004593 
0.975576 0.219615 0.004550 
0.972631 0.232315 0.004319 
0.968061 0.250686 0.003755 
0.961059 0.276331 0.002644 
0.950423 0.310958 0.000705 
0.934464 0.356051 -0.002400 
0.911019 0.412305 -0.007029 
0.877773 0.478886 -0.013520 
0.833008 0.552813 -0.022242 
0.776723 0.628932 -0.033838 
0.711821 0.700602 -0.049677 
0.645502 0.760378 -0.071776 
0.592814 0.799297 -0.098464 
0.568057 0.816640 0.102032 
0.606038 0.791636 0.077659 
0.650946 0.756838 0.058878 
0.693914 0.718527 0.046934 
0.732394 0.679747 0.039290 
0.766083 0.641842 0.033992 
0.795395 0.605351 0.029959 
0.820894 0.570458 0.026653 
0.843116 0.537204 0.023810 
0.862516 0.505581 0.021296 
0.879464 0.475584 0.019035 
0.894260 0.447226 0.016987 
0.907146 0.420545 0.015125 
0.918325 0.395598 0.013438 
0.927977 0.372448 0.011918 
0.936261 0.351146 0.010560 
0.943330 0.331724 0.009361 
0.949328 0.314177 0.008316 
0.954392 0.298465 0.007417 
0.958650 0.284510 0.006654 
0.962221 0.272202 0.006015 
0.965212 0.261410 0.005487 
0.967717 0.251989 0.005057 
0.969817 0.243789 0.004712 
0.971581 0.236667 0.004440 
0.973065 0.230493 0.004231 
0.974315 0.225153 0.004075 
0.975365 0.220564 0.003966 
0.976237 0.216668 0.003897 
0.976946 0.213451 0.003864 
0.977492 0.210939 0.003864 
0.977861 0.209220 0.003893 
0.978025 0.208449 0.003947 
0.977934 0.208874 0.004017 
0.977509 0.210854 0.004090 
0.976628 0.214896 0.004139 
0.975110 0.221684 0.004121 
0.972679 0.232120 0.003963 
0.968921 0.247345 0.003552 
0.963212 0.268730 0.002726 
0.954629 0.297794 0.001262 
0.941863 0.335996 -0.001109 
0.923182 0.384333 -0.004678 
0.896576 0.442784 -0.009707 
0.860182 0.509724 -0.016404 
0.813030 0.581684 -0.025008 
0.755877 0.653718 -0.036094 
0.691898 0.720188 -0.051059 
0.627747 0.775078 -0.072029 
0.577136 0.810795 -0.097600 
0.561664 0.821225 0.100614 
0.599655 0.796588 0.076556 
0.644663 0.762262 0.058009 
0.687841 0.724390 0.046202 
0.726634 0.685938 0.038634 
0.760726 0.648215 0.033377 
0.790507 0.611749 0.029366 
0.816521 0.576727 0.026071 
0.839280 0.543204 0.023229 
0.859214 0.511196 0.020708 
0.876676 0.480729 0.018436 
0.891945 0.451848 0.016373 
0.905251 0.424629 0.014497 
0.916791 0.399162 0.012797 
0.926739 0.375538 0.011268 
0.935256 0.353832 0.009908 
0.942501 0.334090 0.008713 
0.948624 0.316311 0.007677 
0.953772 0.300456 0.006794 
0.958080 0.286437 0.006050 
0.961675 0.274138 0.005435 
0.964670 0.263413 0.004933 
0.967165 0.254109 0.004529 
0.969244 0.246066 0.004211 
0.970978 0.239135 0.003965 
0.972426 0.233181 0.003781 
0.973632 0.228095 0.003650 
0.974630 0.223794 0.003563 
0.975441 0.220231 0.003515 
0.976076 0.217403 0.003500 
0.976529 0.215358 0.003515 
0.976782 0.214207 0.003555 
0.976796 0.214140 0.003612 
0.976509 0.215444 0.003674 
0.975823 0.218530 0.003721 
0.974591 0.223960 0.003720 
0.972594 0.232481 0.003615 
0.969506 0.245044 0.003319 
0.964843 0.262814 0.002708 
0.957894 0.287119 0.001606 
0.947646 0.319321 -0.000204 
0.932737 0.360546 -0.002966 
0.911490 0.411265 -0.006907 
0.882156 0.470800 -0.012195 
0.843389 0.536970 -0.018932 
0.794871 0.606165 -0.027284 
0.737824 0.673933 -0.037824 
0.675377 0.735636 -0.052012 
0.613523 0.786381 -0.072075 
0.564836 0.819508 -0.096784 
0.556116 0.825140 0.099392 
0.594117 0.800817 0.075609 
0.639216 0.766892 0.057268 
0.682583 0.729385 0.045581 
0.721664 0.691196 0.038077 
0.756125 0.653602 0.032854 
0.786341 0.617118 0.028859 
0.812834 0.581935 0.025567 
0.836092 0.548119 0.022719 
0.856525 0.515711 0.020185 
0.874461 0.484765 0.017895 
0.890165 0.455363 0.015811 
0.903853 0.427617 0.013915 
0.915711 0.401652 0.012198 
0.925912 0.377589 0.010658 
0.934621 0.355525 0.009294 
0.942000 0.335515 0.008102 
0.948210 0.317566 0.007077 
0.953405 0.301630 0.006210 
0.957731 0.287614 0.005488 
0.961321 0.275385 0.004896 
0.964296 0.264789 0.004420 
0.966759 0.255658 0.004044 
0.968797 0.247826 0.003752 
0.970485 0.241136 0.003532 
0.971880 0.235453 0.003372 
0.973027 0.230667 0.003263 
0.973959 0.226702 0.003197 
0.974694 0.223522 0.003166 
0.975237 0.221139 0.003167 
0.975580 0.219621 0.003193 
0.975696 0.219106 0.003237 
0.975535 0.219818 0.003289 
0.975022 0.222085 0.003333 
0.974037 0.226365 0.003343 
0.972406 0.233271 0.003276 
0.969873 0.243593 0.003066 
0.966058 0.258313 0.002615 
0.960412 0.278578 0.001789 
0.952154 0.305619 0.000411 
0.940215 0.340578 -0.001722 
0.923236 0.384202 -0.004815 
0.899685 0.436447 -0.009028 
0.868142 0.496106 -0.014445 
0.827761 0.560684 -0.021094 
0.778714 0.626703 -0.029116 
0.722435 0.690332 -0.039121 
0.661811 0.747820 -0.052647 
0.602180 0.795108 -0.071990 
0.555201 0.826152 -0.096041 
0.551288 0.828499 0.098338 
0.589299 0.804446 0.074796 
0.634485 0.770857 0.056634 
0.678034 0.733648 0.045052 
0.717386 0.695660 0.037604 
0.752198 0.658139 0.032408 
0.782827 0.621590 0.028422 
0.809774 0.586203 0.025126 
0.833507 0.552061 0.022265 
0.854410 0.519225 0.019711 
0.872792 0.487781 0.017395 
0.888898 0.457851 0.015285 
0.902929 0.429582 0.013364 
0.915065 0.403138 0.011628 
0.925477 0.378669 0.010075 
0.934335 0.356291 0.008706 
0.941807 0.336070 0.007519 
0.948065 0.318011 0.006505 
0.953272 0.302060 0.005656 
0.957585 0.288110 0.004957 
0.961143 0.276016 0.004392 
0.964073 0.265608 0.003943 
0.966483 0.256706 0.003593 
0.968463 0.249136 0.003328 
0.970087 0.242736 0.003133 
0.971415 0.237369 0.002996 
0.972489 0.232929 0.002908 
0.973341 0.229347 0.002860 
0.973984 0.226599 0.002845 
0.974421 0.224712 0.002857 
0.974636 0.223779 0.002888 
0.974593 0.223963 0.002931 
0.974233 0.225523 0.002970 
0.973463 0.228826 0.002987 
0.972143 0.234371 0.002946 
0.970069 0.242813 0.002799 
0.966946 0.254970 0.002470 
0.962345 0.271823 0.001852 
0.955662 0.294464 0.000807 
0.946064 0.323980 -0.000836 
0.932465 0.361246 -0.003255 
0.913573 0.406622 -0.006610 
0.888054 0.459607 -0.010998 
0.854846 0.518622 -0.016434 
0.813526 0.581077 -0.022906 
0.764585 0.643798 -0.030565 
0.709475 0.703590 -0.040077 
0.650751 0.757436 -0.053051 
0.593169 0.801867 -0.071834 
0.547670 0.831240 -0.095384 
0.547075 0.831394 0.097427 
0.585101 0.807569 0.074096 
0.630377 0.774260 0.056092 
0.674106 0.737287 0.044601 
0.713724 0.699438 0.037201 
0.748879 0.661933 0.032025 
0.779910 0.625263 0.028042 
0.807299 0.589624 0.024736 
0.831489 0.555111 0.021854 
0.852844 0.521810 0.019272 
0.871646 0.489843 0.016926 
0.888123 0.459369 0.014784 
0.902462 0.430579 0.012834 
0.914836 0.403673 0.011076 
0.925417 0.378831 0.009509 
0.934380 0.356186 0.008137 
0.941904 0.335810 0.006955 
0.948171 0.317706 0.005955 
0.953356 0.301806 0.005127 
0.957624 0.287988 0.004452 
0.961123 0.276092 0.003914 
0.963986 0.265931 0.003493 
0.966323 0.257313 0.003172 
0.968227 0.250056 0.002933 
0.969773 0.243992 0.002762 
0.971019 0.238986 0.002648 
0.972008 0.234935 0.002578 
0.972765 0.231780 0.002546 
0.973303 0.229508 0.002543 
0.973618 0.228168 0.002563 
0.973688 0.227871 0.002595 
0.973467 0.228812 0.002629 
0.972884 0.231280 0.002649 
0.971828 0.235678 0.002627 
0.970138 0.242541 0.002526 
0.967581 0.252551 0.002286 
0.963823 0.266535 0.001826 
0.958394 0.285446 0.001035 
0.950644 0.310283 -0.000225 
0.939715 0.341952 -0.002109 
0.924545 0.381043 -0.004769 
0.903955 0.427546 -0.008316 
0.876848 0.480598 -0.012789 
0.842491 0.538404 -0.018158 
0.800792 0.598446 -0.024399 
0.752401 0.657943 -0.031693 
0.698667 0.714285 -0.040769 
0.641790 0.765026 -0.053295 
0.586038 0.807110 -0.071646 
0.541801 0.835142 -0.094816 
0.543395 0.833896 0.096639 
0.581443 0.810261 0.073492 
0.626816 0.777179 0.055627 
0.670730 0.740382 0.044216 
0.710618 0.702612 0.036855 
0.746116 0.665061 0.031693 
0.777548 0.628213 0.027706 
0.805374 0.592265 0.024383 
0.830015 0.557328 0.021475 
0.851806 0.523518 0.018859 
0.871008 0.490993 0.016474 
0.887826 0.459957 0.014295 
0.902437 0.430646 0.012314 
0.915009 0.403296 0.010531 
0.925715 0.378116 0.008952 
0.934739 0.355255 0.007577 
0.942272 0.334786 0.006403 
0.948509 0.316703 0.005421 
0.953637 0.300923 0.004615 
0.957831 0.287306 0.003968 
0.961246 0.275670 0.003459 
0.964019 0.265814 0.003068 
0.966265 0.257533 0.002775 
0.968078 0.250636 0.002562 
0.969532 0.244954 0.002415 
0.970684 0.240350 0.002321 
0.971573 0.236729 0.002269 
0.972224 0.234041 0.002251 
0.972644 0.232289 0.002257 
0.972823 0.231540 0.002279 
0.972730 0.231928 0.002307 
0.972312 0.233675 0.002327 
0.971482 0.237100 0.002318 
0.970114 0.242638 0.002250 
0.968024 0.250848 0.002077 
0.964950 0.262428 0.001736 
0.960525 0.278193 0.001139 
0.954241 0.299038 0.000175 
0.945423 0.325843 -0.001287 
0.933213 0.359308 -0.003385 
0.916608 0.399738 -0.006235 
0.894578 0.446803 -0.009904 
0.866263 0.499381 -0.014387 
0.831219 0.555599 -0.019630 
0.789571 0.613124 -0.025614 
0.742016 0.669591 -0.032564 
0.689728 0.722892 -0.041265 
0.634574 0.771013 -0.053432 
0.580424 0.811174 -0.071453 
0.537255 0.838127 -0.094339 
0.540181 0.836060 0.095958 
0.578260 0.812583 0.072972 
0.623742 0.779676 0.055229 
0.667852 0.742999 0.043887 
0.708020 0.705245 0.036558 
0.743871 0.667585 0.031404 
0.775711 0.630493 0.027407 
0.803978 0.594172 0.024060 
0.829066 0.558751 0.021117 
0.851284 0.524380 0.018459 
0.870866 0.491259 0.016030 
0.887998 0.459641 0.013810 
0.902844 0.429807 0.011794 
0.915570 0.402035 0.009987 
0.926355 0.376558 0.008396 
0.935394 0.353537 0.007021 
0.942894 0.333042 0.005859 
0.949062 0.315051 0.004897 
0.954099 0.299463 0.004119 
0.958189 0.286114 0.003502 
0.961496 0.274802 0.003024 
0.964160 0.265308 0.002663 
0.966298 0.257415 0.002399 
0.968004 0.250924 0.002212 
0.969353 0.245664 0.002088 
0.970398 0.241502 0.002013 
0.971178 0.238349 0.001976 
0.971711 0.236166 0.001968 
0.972000 0.234973 0.001980 
0.972029 0.234854 0.002001 
0.971759 0.235968 0.002019 
0.971125 0.238562 0.002019 
0.970029 0.242982 0.001974 
0.968325 0.249686 0.001851 
0.965809 0.259251 0.001599 
0.962191 0.272372 0.001150 
0.957077 0.289834 0.000414 
0.949933 0.312453 -0.000716 
0.940074 0.340962 -0.002362 
0.926669 0.375850 -0.004638 
0.908802 0.417159 -0.007626 
0.885605 0.464301 -0.011357 
0.856444 0.515998 -0.015793 
0.821096 0.570408 -0.020870 
0.779815 0.625445 -0.026593 
0.733256 0.679140 -0.033229 
0.682395 0.729798 -0.041617 
0.628803 0.775722 -0.053500 
0.576041 0.814308 -0.071273 
0.533770 0.840395 -0.093947 
0.537379 0.837931 0.095369 
0.575501 0.814579 0.072526 
0.621108 0.781800 0.054888 
0.665431 0.745184 0.043606 
0.705897 0.707384 0.036302 
0.742117 0.669546 0.031149 
0.774380 0.632139 0.027135 
0.803098 0.595373 0.023756 
0.828637 0.559401 0.020771 
0.851274 0.524411 0.018064 
0.871217 0.490652 0.015585 
0.888631 0.458429 0.013318 
0.903672 0.428077 0.011266 
0.916506 0.399909 0.009435 
0.927322 0.374183 0.007835 
0.936329 0.351066 0.006465 
0.943750 0.330616 0.005319 
0.949811 0.312794 0.004382 
0.954724 0.297472 0.003634 
0.958683 0.284461 0.003050 
0.961858 0.273536 0.002605 
0.964394 0.264459 0.002276 
0.966408 0.257003 0.002041 
0.967995 0.250961 0.001880 
0.969227 0.246162 0.001777 
0.970156 0.242477 0.001719 
0.970814 0.239826 0.001695 
0.971219 0.238182 0.001695 
0.971366 0.237582 0.001709 
0.971232 0.238128 0.001724 
0.970771 0.240002 0.001728 
0.969906 0.243475 0.001701 
0.968525 0.248913 0.001614 
0.966466 0.256792 0.001429 
0.963503 0.267696 0.001092 
0.959326 0.282302 0.000532 
0.953515 0.301345 -0.000340 
0.945526 0.325543 -0.001626 
0.934680 0.355474 -0.003432 
0.920194 0.391420 -0.005848 
0.901257 0.433193 -0.008927 
0.877167 0.480019 -0.012667 
0.847481 0.530553 -0.017014 
0.812134 0.583060 -0.021906 
0.771430 0.635724 -0.027376 
0.725939 0.686931 -0.033737 
0.676431 0.735315 -0.041866 
0.624233 0.779402 -0.053528 
0.572662 0.816701 -0.071116 
0.531143 0.842092 -0.093636 
0.534947 0.839543 0.094863 
0.573126 0.816285 0.072143 
0.618878 0.783587 0.054599 
0.663438 0.746973 0.043366 
0.704226 0.709059 0.036081 
0.740840 0.670970 0.030922 
0.773547 0.633169 0.026883 
0.802732 0.595878 0.023464 
0.828726 0.559281 0.020427 
0.851776 0.523609 0.017663 
0.872059 0.489168 0.015128 
0.889722 0.456323 0.012812 
0.904914 0.425460 0.010722 
0.917805 0.396932 0.008870 
0.928599 0.371014 0.007264 
0.937524 0.347871 0.005904 
0.944822 0.327548 0.004779 
0.950737 0.309976 0.003872 
0.955493 0.294997 0.003159 
0.959295 0.282393 0.002611 
0.962318 0.271916 0.002202 
0.964709 0.263311 0.001905 
0.966586 0.256337 0.001699 
0.968042 0.250784 0.001562 
0.969146 0.246481 0.001480 
0.969949 0.243305 0.001438 
0.970478 0.241186 0.001424 
0.970744 0.240111 0.001429 
0.970739 0.240132 0.001440 
0.970432 0.241372 0.001446 
0.969766 0.244033 0.001430 
0.968656 0.248403 0.001370 
0.966975 0.254869 0.001235 
0.964545 0.263915 0.000984 
0.961124 0.276118 0.000558 
0.956380 0.292127 -0.000112 
0.949881 0.312610 -0.001114 
0.941080 0.338174 -0.002540 
0.929323 0.369241 -0.004480 
0.913891 0.405900 -0.007000 
0.894087 0.447780 -0.010127 
0.869359 0.493988 -0.013836 
0.839419 0.543184 -0.018065 
0.804302 0.593785 -0.022766 
0.764307 0.644245 -0.028003 
0.719889 0.693250 -0.034125 
0.671634 0.739689 -0.042043 
0.620663 0.782248 -0.053536 
0.570110 0.818496 -0.070990 
0.529221 0.843328 -0.093401 
0.532853 0.840922 0.094431 
0.571106 0.817729 0.071819 
0.617027 0.785062 0.054354 
0.661853 0.748390 0.043163 
0.702994 0.710289 0.035888 
0.740034 0.671868 0.030715 
0.773213 0.633587 0.026642 
0.802884 0.595684 0.023174 
0.829342 0.558380 0.020077 
0.852796 0.521959 0.017249 
0.873395 0.486793 0.014652 
0.891268 0.453311 0.012284 
0.906560 0.421955 0.010157 
0.919453 0.393112 0.008287 
0.930169 0.367071 0.006680 
0.938960 0.343985 0.005335 
0.946090 0.323875 0.004239 
0.951820 0.306637 0.003367 
0.956390 0.292081 0.002692 
0.960011 0.279955 0.002184 
0.962862 0.269986 0.001812 
0.965093 0.261902 0.001548 
0.966821 0.255453 0.001371 
0.968135 0.250425 0.001258 
0.969104 0.246650 0.001194 
0.969772 0.244011 0.001165 
0.970163 0.242451 0.001159 
0.970283 0.241969 0.001165 
0.970117 0.242635 0.001171 
0.969626 0.244590 0.001163 
0.968746 0.248053 0.001123 
0.967379 0.253331 0.001026 
0.965387 0.260820 0.000838 
0.962578 0.271005 0.000516 
0.958691 0.284449 0.000001 
0.953385 0.301756 -0.000777 
0.946220 0.323518 -0.001899 
0.936659 0.350226 -0.003447 
0.924085 0.382149 -0.005493 
0.907852 0.419212 -0.008083 
0.887378 0.460906 -0.011221 
0.862241 0.506280 -0.014868 
0.832268 0.554049 -0.018965 
0.797542 0.602806 -0.023478 
0.758324 0.651255 -0.028503 
0.714946 0.698332 -0.034424 
0.667830 0.743118 -0.042173 