# OOMMF: rectangular mesh v0.99 
# Segment count: 1 
# Begin: Segment 
# Begin: Header 
# Title: model.omf 
# Desc: 
# meshunit: unknown 
# xbase: 0 
# ybase: 0 
# zbase: 0 
# xstepsize: 1
# ystepsize: 1 
# zstepsize: 1 
# xnodes: 50 
# ynodes: 50 
# znodes: 4 
# xmin: -0.5 
# ymin: -0.5 
# zmin: -0.5 
# xmax: 49.500000 
# ymax: 49.500000 
# zmax: 3.500000 
# valueunit: Ms 
# valuemultiplier: 1 
# ValueRangeMaxMag:  1. 
# ValueRangeMinMag:  1e-8 
# End: Header 
# Begin: data text 
0.753242 0.639195 0.155101 
0.790441 0.597191 0.136255 
0.826700 0.549850 0.119301 
0.856842 0.504570 0.105976 
0.880885 0.463611 0.095423 
0.899920 0.427336 0.086761 
0.915073 0.395390 0.079423 
0.927263 0.367210 0.073076 
0.937189 0.342226 0.067511 
0.945370 0.319935 0.062587 
0.952189 0.299917 0.058197 
0.957928 0.281833 0.054260 
0.962799 0.265417 0.050710 
0.966961 0.250460 0.047496 
0.970535 0.236800 0.044579 
0.973615 0.224312 0.041926 
0.976276 0.212895 0.039512 
0.978578 0.202468 0.037316 
0.980571 0.192958 0.035321 
0.982299 0.184300 0.033511 
0.983797 0.176430 0.031871 
0.985099 0.169284 0.030388 
0.986231 0.162800 0.029048 
0.987220 0.156912 0.027837 
0.988087 0.151558 0.026742 
0.988850 0.146674 0.025750 
0.989526 0.142200 0.024849 
0.990130 0.138080 0.024028 
0.990672 0.134262 0.023276 
0.991165 0.130700 0.022584 
0.991614 0.127355 0.021946 
0.992028 0.124197 0.021355 
0.992409 0.121208 0.020808 
0.992761 0.118380 0.020305 
0.993083 0.115724 0.019847 
0.993374 0.113270 0.019443 
0.993628 0.111078 0.019101 
0.993837 0.109239 0.018837 
0.993987 0.107892 0.018671 
0.994059 0.107238 0.018624 
0.994024 0.107549 0.018716 
0.993840 0.109188 0.018952 
0.993451 0.112616 0.019285 
0.992778 0.118367 0.019546 
0.991720 0.126965 0.019276 
0.990184 0.138688 0.017382 
0.988151 0.153052 0.011521 
0.985805 0.167873 -0.002671 
0.983499 0.178226 -0.031078 
0.981292 0.178318 -0.072587 
0.728376 0.669826 0.144227 
0.766862 0.630653 0.119160 
0.806316 0.582989 0.099891 
0.839455 0.536477 0.086646 
0.865983 0.494096 0.077092 
0.887056 0.456375 0.069666 
0.903901 0.422995 0.063547 
0.917513 0.393407 0.058320 
0.928646 0.367051 0.053762 
0.937859 0.343432 0.049738 
0.945567 0.322138 0.046154 
0.952075 0.302834 0.042940 
0.957614 0.285259 0.040043 
0.962355 0.269206 0.037420 
0.966433 0.254519 0.035039 
0.969950 0.241072 0.032876 
0.972990 0.228770 0.030908 
0.975619 0.217529 0.029121 
0.977896 0.207278 0.027500 
0.979867 0.197949 0.026032 
0.981575 0.189475 0.024706 
0.983056 0.181791 0.023510 
0.984344 0.174827 0.022433 
0.985466 0.168513 0.021463 
0.986448 0.162780 0.020590 
0.987311 0.157559 0.019804 
0.988075 0.152786 0.019093 
0.988756 0.148397 0.018448 
0.989367 0.144337 0.017862 
0.989921 0.140557 0.017327 
0.990426 0.137015 0.016836 
0.990889 0.133682 0.016387 
0.991314 0.130539 0.015977 
0.991705 0.127583 0.015605 
0.992060 0.124833 0.015276 
0.992376 0.122329 0.014994 
0.992646 0.120149 0.014770 
0.992857 0.118412 0.014616 
0.992990 0.117296 0.014549 
0.993018 0.117058 0.014585 
0.992898 0.118055 0.014738 
0.992567 0.120774 0.015000 
0.991930 0.125859 0.015313 
0.990843 0.134124 0.015492 
0.989092 0.146529 0.015053 
0.986368 0.164051 0.012860 
0.982270 0.187359 0.006448 
0.976324 0.216131 -0.008884 
0.967987 0.247839 -0.039711 
0.957563 0.275410 -0.084983 
0.701532 0.699782 0.134751 
0.739768 0.664302 0.106985 
0.781194 0.618321 0.086104 
0.817141 0.571843 0.072642 
0.846456 0.528645 0.063610 
0.870027 0.489701 0.056976 
0.889038 0.454907 0.051692 
0.904514 0.423817 0.047255 
0.917252 0.395933 0.043416 
0.927851 0.370795 0.040038 
0.936759 0.348012 0.037032 
0.944308 0.327267 0.034337 
0.950750 0.308311 0.031908 
0.956278 0.290946 0.029710 
0.961038 0.275023 0.027715 
0.965147 0.260424 0.025903 
0.968698 0.247055 0.024259 
0.971768 0.234839 0.022768 
0.974422 0.223702 0.021420 
0.976717 0.213576 0.020203 
0.978702 0.204392 0.019110 
0.980421 0.196078 0.018128 
0.981911 0.188558 0.017250 
0.983206 0.181756 0.016465 
0.984336 0.175595 0.015763 
0.985328 0.170000 0.015136 
0.986203 0.164896 0.014575 
0.986981 0.160218 0.014071 
0.987679 0.155903 0.013618 
0.988308 0.151898 0.013209 
0.988880 0.148162 0.012841 
0.989402 0.144664 0.012509 
0.989879 0.141389 0.012214 
0.990312 0.138343 0.011957 
0.990700 0.135556 0.011739 
0.991037 0.133089 0.011569 
0.991310 0.131049 0.011454 
0.991501 0.129598 0.011407 
0.991582 0.128978 0.011441 
0.991507 0.129536 0.011566 
0.991211 0.131765 0.011787 
0.990588 0.136345 0.012080 
0.989470 0.144207 0.012361 
0.987586 0.156589 0.012403 
0.984485 0.175083 0.011663 
0.979429 0.201592 0.008909 
0.971253 0.238043 0.001552 
0.958290 0.285393 -0.015197 
0.938953 0.340733 -0.047636 
0.916021 0.390073 -0.093533 
0.676568 0.725260 0.127492 
0.714488 0.692583 0.099181 
0.756977 0.648796 0.077783 
0.794956 0.603255 0.064254 
0.826617 0.560022 0.055495 
0.852483 0.520426 0.049287 
0.873595 0.484618 0.044465 
0.890942 0.452310 0.040474 
0.905326 0.423099 0.037044 
0.917367 0.396585 0.034033 
0.927535 0.372420 0.031357 
0.936185 0.350312 0.028958 
0.943589 0.330032 0.026795 
0.949954 0.311399 0.024837 
0.955442 0.294277 0.023062 
0.960180 0.278556 0.021452 
0.964274 0.264151 0.019993 
0.967810 0.250988 0.018674 
0.970863 0.238996 0.017486 
0.973497 0.228108 0.016420 
0.975771 0.218248 0.015466 
0.977733 0.209342 0.014617 
0.979430 0.201307 0.013862 
0.980901 0.194059 0.013194 
0.982181 0.187513 0.012602 
0.983301 0.181586 0.012079 
0.984286 0.176198 0.011616 
0.985159 0.171276 0.011206 
0.985939 0.166754 0.010843 
0.986640 0.162575 0.010522 
0.987274 0.158698 0.010239 
0.987849 0.155095 0.009992 
0.988369 0.151758 0.009781 
0.988835 0.148703 0.009607 
0.989243 0.145977 0.009475 
0.989581 0.143669 0.009390 
0.989833 0.141925 0.009362 
0.989970 0.140963 0.009400 
0.989948 0.141108 0.009513 
0.989700 0.142824 0.009704 
0.989121 0.146770 0.009963 
0.988039 0.153864 0.010240 
0.986176 0.165376 0.010410 
0.983057 0.183016 0.010184 
0.977875 0.208998 0.008932 
0.969266 0.245959 0.005335 
0.955057 0.296406 -0.003204 
0.932347 0.360944 -0.021172 
0.899351 0.433892 -0.053908 
0.863200 0.495245 -0.098076 
0.654574 0.746109 0.121875 
0.692356 0.715423 0.093883 
0.735498 0.673627 0.072589 
0.774883 0.629329 0.059178 
0.808340 0.586537 0.050616 
0.836096 0.546763 0.044654 
0.859030 0.510353 0.040090 
0.878059 0.477170 0.036346 
0.893963 0.446914 0.033141 
0.907360 0.419260 0.030333 
0.918729 0.393906 0.027836 
0.928440 0.370600 0.025598 
0.936774 0.349138 0.023579 
0.943953 0.329362 0.021752 
0.950148 0.311150 0.020095 
0.955499 0.294409 0.018595 
0.960118 0.279062 0.017238 
0.964104 0.265042 0.016016 
0.967539 0.252283 0.014920 
0.970496 0.240714 0.013941 
0.973041 0.230261 0.013071 
0.975232 0.220841 0.012303 
0.977121 0.212366 0.011626 
0.978753 0.204745 0.011032 
0.980169 0.197885 0.010512 
0.981403 0.191696 0.010058 
0.982485 0.186091 0.009662 
0.983441 0.180990 0.009316 
0.984291 0.176326 0.009017 
0.985051 0.172041 0.008757 
0.985734 0.168093 0.008536 
0.986348 0.164460 0.008351 
0.986897 0.161142 0.008202 
0.987378 0.158172 0.008091 
0.987785 0.155619 0.008024 
0.988100 0.153606 0.008005 
0.988298 0.152326 0.008043 
0.988337 0.152067 0.008143 
0.988152 0.153250 0.008308 
0.987645 0.156476 0.008530 
0.986654 0.162593 0.008774 
0.984920 0.172779 0.008958 
0.982004 0.188648 0.008900 
0.977163 0.212332 0.008238 
0.969126 0.246488 0.006258 
0.955801 0.294009 0.001605 
0.934068 0.357002 -0.008168 
0.900372 0.434285 -0.026963 
0.854091 0.516772 -0.058946 
0.807228 0.581672 -0.100203 
0.635644 0.763008 0.117369 
0.673411 0.733774 0.089969 
0.717018 0.693628 0.069032 
0.757398 0.650562 0.055839 
0.792197 0.608417 0.047453 
0.821447 0.568761 0.041658 
0.845888 0.532058 0.037254 
0.866359 0.498287 0.033656 
0.883599 0.467245 0.030583 
0.898213 0.438674 0.027891 
0.910678 0.412329 0.025497 
0.921365 0.387996 0.023349 
0.930564 0.365503 0.021410 
0.938501 0.344718 0.019654 
0.945356 0.325540 0.018063 
0.951276 0.307891 0.016624 
0.956384 0.291709 0.015326 
0.960785 0.276934 0.014160 
0.964569 0.263503 0.013119 
0.967820 0.251347 0.012195 
0.970610 0.240390 0.011380 
0.973004 0.230542 0.010664 
0.975061 0.221711 0.010040 
0.976832 0.213796 0.009499 
0.978363 0.206698 0.009030 
0.979693 0.200318 0.008626 
0.980855 0.194565 0.008279 
0.981876 0.189355 0.007983 
0.982780 0.184617 0.007731 
0.983584 0.180293 0.007519 
0.984301 0.176346 0.007345 
0.984937 0.172761 0.007209 
0.985496 0.169550 0.007109 
0.985972 0.166763 0.007049 
0.986352 0.164501 0.007033 
0.986613 0.162924 0.007066 
0.986718 0.162283 0.007152 
0.986608 0.162946 0.007292 
0.986191 0.165442 0.007480 
0.985324 0.170524 0.007688 
0.983774 0.179238 0.007855 
0.981164 0.193019 0.007854 
0.976854 0.213779 0.007445 
0.969770 0.243944 0.006192 
0.958134 0.286299 0.003329 
0.939186 0.343399 -0.002456 
0.909232 0.416077 -0.013323 
0.865002 0.500718 -0.032459 
0.808085 0.585688 -0.063003 
0.754375 0.648626 -0.101006 
0.619497 0.776729 0.113646 
0.657303 0.748601 0.086883 
0.701268 0.709801 0.066374 
0.742379 0.667847 0.053429 
0.778191 0.626399 0.045206 
0.808612 0.587012 0.039539 
0.834280 0.550213 0.035245 
0.855961 0.516065 0.031744 
0.874354 0.484436 0.028756 
0.890039 0.455134 0.026137 
0.903482 0.427964 0.023805 
0.915052 0.402752 0.021710 
0.925036 0.379362 0.019817 
0.933665 0.357689 0.018102 
0.941124 0.337657 0.016548 
0.947564 0.319207 0.015145 
0.953115 0.302290 0.013882 
0.957889 0.286855 0.012752 
0.961986 0.272845 0.011748 
0.965495 0.260194 0.010861 
0.968498 0.248818 0.010085 
0.971066 0.238627 0.009410 
0.973264 0.229518 0.008826 
0.975151 0.221385 0.008325 
0.976775 0.214121 0.007896 
0.978180 0.207621 0.007533 
0.979403 0.201787 0.007226 
0.980472 0.196533 0.006969 
0.981413 0.191786 0.006756 
0.982244 0.187491 0.006584 
0.982977 0.183616 0.006451 
0.983618 0.180155 0.006354 
0.984166 0.177137 0.006296 
0.984613 0.174636 0.006278 
0.984940 0.172783 0.006303 
0.985113 0.171788 0.006374 
0.985082 0.171966 0.006491 
0.984764 0.173772 0.006649 
0.984033 0.177855 0.006825 
0.982691 0.185123 0.006972 
0.980416 0.196815 0.006996 
0.976681 0.214592 0.006722 
0.970614 0.240572 0.005853 
0.960784 0.277271 0.003900 
0.944943 0.327234 0.000094 
0.919887 0.392124 -0.006751 
0.881932 0.471016 -0.018419 
0.828948 0.558073 -0.037416 
0.764968 0.640660 -0.066162 
0.708025 0.698919 -0.101064 
0.605755 0.787938 0.110518 
0.643613 0.760688 0.084355 
0.687860 0.722993 0.064268 
0.729524 0.682009 0.051567 
0.766116 0.641229 0.043492 
0.797464 0.602173 0.037929 
0.824132 0.565393 0.033717 
0.846828 0.531004 0.030285 
0.866209 0.498933 0.027355 
0.882830 0.469039 0.024784 
0.897141 0.441172 0.022491 
0.909500 0.415201 0.020428 
0.920194 0.391023 0.018562 
0.929449 0.368565 0.016871 
0.937453 0.347774 0.015339 
0.944361 0.328614 0.013957 
0.950308 0.311051 0.012716 
0.955413 0.295044 0.011611 
0.959783 0.280542 0.010633 
0.963515 0.267477 0.009776 
0.966697 0.255765 0.009030 
0.969409 0.245307 0.008387 
0.971722 0.235996 0.007837 
0.973699 0.227717 0.007370 
0.975395 0.220355 0.006977 
0.976855 0.213799 0.006648 
0.978119 0.207947 0.006376 
0.979219 0.202711 0.006153 
0.980180 0.198018 0.005975 
0.981020 0.193817 0.005837 
0.981751 0.190083 0.005738 
0.982377 0.186823 0.005677 
0.982894 0.184085 0.005653 
0.983288 0.181970 0.005669 
0.983531 0.180649 0.005726 
0.983579 0.180384 0.005823 
0.983362 0.181560 0.005955 
0.982771 0.184728 0.006104 
0.981636 0.190660 0.006234 
0.979692 0.200413 0.006272 
0.976507 0.215398 0.006087 
0.971388 0.237434 0.005462 
0.963210 0.268719 0.004054 
0.950208 0.311614 0.001354 
0.929793 0.368067 -0.003355 
0.898666 0.438494 -0.011065 
0.853732 0.520197 -0.023171 
0.794445 0.605907 -0.041635 
0.726789 0.683437 -0.068491 
0.669240 0.736195 -0.100677 
0.594044 0.797168 0.107866 
0.631949 0.770634 0.082242 
0.676417 0.733858 0.062543 
0.718513 0.693709 0.050067 
0.755719 0.653539 0.042124 
0.787815 0.614821 0.036648 
0.815307 0.578116 0.032500 
0.838859 0.543569 0.029119 
0.859091 0.511150 0.026229 
0.876532 0.480761 0.023690 
0.891612 0.452292 0.021422 
0.904679 0.425652 0.019378 
0.916010 0.400772 0.017526 
0.925829 0.377610 0.015846 
0.934322 0.356141 0.014326 
0.941648 0.336351 0.012957 
0.947944 0.318220 0.011731 
0.953337 0.301720 0.010643 
0.957941 0.286803 0.009686 
0.961859 0.273401 0.008853 
0.965189 0.261427 0.008134 
0.968016 0.250777 0.007519 
0.970417 0.241333 0.007000 
0.972461 0.232974 0.006564 
0.974206 0.225577 0.006201 
0.975701 0.219027 0.005904 
0.976988 0.213217 0.005663 
0.978101 0.208058 0.005471 
0.979065 0.203478 0.005324 
0.979898 0.199433 0.005217 
0.980609 0.195908 0.005149 
0.981200 0.192925 0.005118 
0.981663 0.190554 0.005124 
0.981977 0.188929 0.005166 
0.982105 0.188262 0.005245 
0.981987 0.188874 0.005355 
0.981531 0.191226 0.005481 
0.980595 0.195966 0.005596 
0.978958 0.203984 0.005644 
0.976273 0.216471 0.005524 
0.971990 0.234968 0.005074 
0.965232 0.261363 0.004038 
0.954635 0.297770 0.002052 
0.938174 0.346163 -0.001377 
0.913124 0.407624 -0.006864 
0.876463 0.481231 -0.015177 
0.826081 0.562887 -0.027367 
0.762983 0.644847 -0.045041 
0.694274 0.716289 -0.070097 
0.637717 0.763749 -0.100023 
0.584034 0.804830 0.105608 
0.621974 0.778893 0.080459 
0.666618 0.742890 0.061107 
0.709058 0.703457 0.048832 
0.746762 0.663826 0.041005 
0.779472 0.625425 0.035601 
0.807657 0.588811 0.031504 
0.831941 0.554149 0.028161 
0.852913 0.521439 0.025299 
0.871077 0.490618 0.022779 
0.886844 0.461613 0.020525 
0.900545 0.434369 0.018489 
0.912449 0.408851 0.016642 
0.922775 0.385050 0.014966 
0.931704 0.362968 0.013450 
0.939399 0.342614 0.012087 
0.946000 0.323985 0.010871 
0.951639 0.307062 0.009796 
0.956438 0.291802 0.008857 
0.960508 0.278137 0.008045 
0.963953 0.265972 0.007350 
0.966865 0.255197 0.006762 
0.969329 0.245686 0.006270 
0.971416 0.237310 0.005863 
0.973189 0.229940 0.005530 
0.974701 0.223453 0.005262 
0.975994 0.217741 0.005050 
0.977102 0.212714 0.004887 
0.978052 0.208306 0.004768 
0.978860 0.204479 0.004689 
0.979533 0.201229 0.004647 
0.980070 0.198597 0.004642 
0.980456 0.196681 0.004671 
0.980663 0.195648 0.004734 
0.980641 0.195757 0.004824 
0.980313 0.197391 0.004931 
0.979560 0.201088 0.005033 
0.978203 0.207590 0.005086 
0.975959 0.217896 0.005015 
0.972394 0.233299 0.004695 
0.966826 0.255407 0.003934 
0.958204 0.286074 0.002453 
0.944966 0.327169 -0.000109 
0.924945 0.380078 -0.004193 
0.895518 0.444907 -0.010279 
0.854236 0.519541 -0.018919 
0.800103 0.599066 -0.030906 
0.735313 0.676049 -0.047665 
0.667300 0.741386 -0.071117 
0.612538 0.784188 -0.099225 
0.575447 0.811241 0.103681 
0.613410 0.785809 0.078947 
0.658195 0.750461 0.059900 
0.700917 0.711639 0.047803 
0.739033 0.672476 0.040077 
0.772262 0.634354 0.034733 
0.801041 0.597823 0.030676 
0.825963 0.563061 0.027360 
0.847588 0.530088 0.024515 
0.866397 0.498870 0.022006 
0.882781 0.469370 0.019756 
0.897054 0.441565 0.017719 
0.909475 0.415456 0.015869 
0.920254 0.391065 0.014190 
0.929571 0.368424 0.012673 
0.937588 0.347565 0.011312 
0.944450 0.328500 0.010102 
0.950295 0.311221 0.009039 
0.955251 0.295686 0.008115 
0.959438 0.281824 0.007322 
0.962967 0.269536 0.006650 
0.965938 0.258702 0.006088 
0.968439 0.249188 0.005623 
0.970547 0.240855 0.005244 
0.972328 0.233568 0.004939 
0.973837 0.227199 0.004698 
0.975118 0.221639 0.004513 
0.976206 0.216800 0.004377 
0.977126 0.212619 0.004284 
0.977892 0.209068 0.004230 
0.978509 0.206159 0.004212 
0.978971 0.203954 0.004227 
0.979257 0.202578 0.004274 
0.979327 0.202238 0.004347 
0.979119 0.203242 0.004438 
0.978534 0.206034 0.004527 
0.977426 0.211230 0.004583 
0.975566 0.219658 0.004548 
0.972610 0.232401 0.004325 
0.968027 0.250817 0.003769 
0.961008 0.276508 0.002666 
0.950351 0.311178 0.000734 
0.934365 0.356310 -0.002364 
0.910890 0.412591 -0.006987 
0.877612 0.479182 -0.013473 
0.832820 0.553099 -0.022190 
0.776519 0.629188 -0.033779 
0.711614 0.700817 -0.049609 
0.645303 0.760555 -0.071695 
0.592626 0.799448 -0.098368 
0.568049 0.816645 0.102030 
0.606027 0.791644 0.077658 
0.650929 0.756852 0.058879 
0.693888 0.718551 0.046939 
0.732358 0.679784 0.039299 
0.766037 0.641896 0.034007 
0.795337 0.605426 0.029980 
0.820825 0.570556 0.026682 
0.843038 0.537326 0.023846 
0.862430 0.505727 0.021339 
0.879373 0.475752 0.019084 
0.894166 0.447411 0.017039 
0.907053 0.420743 0.015180 
0.918237 0.395800 0.013492 
0.927896 0.372646 0.011969 
0.936191 0.351333 0.010607 
0.943271 0.331890 0.009401 
0.949282 0.314316 0.008347 
0.954358 0.298571 0.007439 
0.958629 0.284580 0.006665 
0.962212 0.272234 0.006016 
0.965214 0.261405 0.005479 
0.967728 0.251948 0.005041 
0.969835 0.243716 0.004689 
0.971605 0.236566 0.004411 
0.973094 0.230369 0.004196 
0.974348 0.225013 0.004037 
0.975399 0.220412 0.003926 
0.976272 0.216512 0.003856 
0.976980 0.213297 0.003823 
0.977523 0.210793 0.003825 
0.977889 0.209088 0.003857 
0.978049 0.208337 0.003914 
0.977953 0.208787 0.003989 
0.977521 0.210797 0.004068 
0.976633 0.214874 0.004124 
0.975106 0.221701 0.004113 
0.972665 0.232179 0.003963 
0.968895 0.247448 0.003561 
0.963170 0.268880 0.002743 
0.954568 0.297991 0.001287 
0.941778 0.336235 -0.001077 
0.923069 0.384606 -0.004640 
0.896432 0.443076 -0.009664 
0.860009 0.510017 -0.016357 
0.812836 0.581958 -0.024957 
0.755674 0.653956 -0.036039 
0.691699 0.720383 -0.050998 
0.627561 0.775235 -0.071958 
0.576963 0.810928 -0.097516 
0.561652 0.821233 0.100613 
0.599639 0.796600 0.076556 
0.644640 0.762282 0.058012 
0.687808 0.724420 0.046208 
0.726591 0.685982 0.038645 
0.760671 0.648278 0.033394 
0.790441 0.611833 0.029390 
0.816444 0.576835 0.026102 
0.839192 0.543337 0.023268 
0.859120 0.511354 0.020754 
0.876576 0.480908 0.018487 
0.891844 0.452045 0.016428 
0.905153 0.424836 0.014553 
0.916699 0.399372 0.012852 
0.926655 0.375742 0.011320 
0.935184 0.354022 0.009954 
0.942442 0.334256 0.008751 
0.948579 0.316448 0.007707 
0.953740 0.300557 0.006813 
0.958061 0.286500 0.006060 
0.961668 0.274161 0.005434 
0.964675 0.263398 0.004922 
0.967179 0.254057 0.004510 
0.969266 0.245981 0.004185 
0.971006 0.239023 0.003933 
0.972458 0.233047 0.003745 
0.973667 0.227945 0.003610 
0.974667 0.223634 0.003521 
0.975478 0.220068 0.003472 
0.976111 0.217244 0.003458 
0.976562 0.215209 0.003475 
0.976811 0.214075 0.003518 
0.976821 0.214030 0.003579 
0.976528 0.215362 0.003646 
0.975834 0.218480 0.003700 
0.974594 0.223948 0.003706 
0.972587 0.232510 0.003609 
0.969487 0.245119 0.003322 
0.964810 0.262935 0.002719 
0.957843 0.287288 0.001625 
0.947574 0.319536 -0.000177 
0.932638 0.360800 -0.002932 
0.911362 0.411547 -0.006867 
0.881999 0.471094 -0.012151 
0.843208 0.537256 -0.018885 
0.794675 0.606424 -0.027235 
0.737625 0.674153 -0.037772 
0.675188 0.735814 -0.051956 
0.613349 0.786523 -0.072010 
0.564675 0.819628 -0.096709 
0.556099 0.825151 0.099393 
0.594095 0.800833 0.075612 
0.639186 0.766917 0.057273 
0.682544 0.729421 0.045589 
0.721613 0.691248 0.038091 
0.756062 0.653673 0.032874 
0.786266 0.617212 0.028886 
0.812747 0.582053 0.025601 
0.835996 0.548263 0.022761 
0.856422 0.515880 0.020233 
0.874355 0.484955 0.017948 
0.890059 0.455570 0.015867 
0.903750 0.427833 0.013972 
0.915616 0.401868 0.012254 
0.925827 0.377797 0.010710 
0.934548 0.355715 0.009339 
0.941941 0.335680 0.008139 
0.948165 0.317699 0.007104 
0.953375 0.301725 0.006227 
0.957714 0.287669 0.005494 
0.961317 0.275399 0.004893 
0.964303 0.264763 0.004407 
0.966775 0.255596 0.004022 
0.968822 0.247730 0.003723 
0.970516 0.241013 0.003498 
0.971915 0.235308 0.003333 
0.973065 0.230507 0.003221 
0.973998 0.226534 0.003153 
0.974733 0.223353 0.003123 
0.975274 0.220976 0.003124 
0.975614 0.219471 0.003152 
0.975725 0.218975 0.003200 
0.975559 0.219712 0.003257 
0.975039 0.222009 0.003307 
0.974046 0.226325 0.003323 
0.972406 0.233270 0.003264 
0.969862 0.243637 0.003062 
0.966033 0.258404 0.002620 
0.960372 0.278717 0.001803 
0.952094 0.305807 0.000433 
0.940131 0.340809 -0.001692 
0.923126 0.384468 -0.004779 
0.899546 0.436734 -0.008987 
0.867976 0.496397 -0.014401 
0.827576 0.560960 -0.021048 
0.778519 0.626948 -0.029069 
0.722243 0.690535 -0.039072 
0.661631 0.747983 -0.052594 
0.602018 0.795236 -0.071932 
0.555052 0.826260 -0.095973 
0.551265 0.828514 0.098341 
0.589270 0.804466 0.074800 
0.634449 0.770887 0.056641 
0.677987 0.733691 0.045063 
0.717328 0.695720 0.037620 
0.752127 0.658219 0.032430 
0.782744 0.621693 0.028451 
0.809680 0.586332 0.025163 
0.833403 0.552216 0.022309 
0.854300 0.519404 0.019761 
0.872679 0.487982 0.017450 
0.888786 0.458066 0.015343 
0.902822 0.429806 0.013423 
0.914967 0.403360 0.011684 
0.925391 0.378880 0.010127 
0.934261 0.356481 0.008751 
0.941749 0.336232 0.007554 
0.948022 0.318138 0.006531 
0.953244 0.302147 0.005671 
0.957571 0.288156 0.004961 
0.961142 0.276019 0.004385 
0.964083 0.265571 0.003926 
0.966503 0.256632 0.003569 
0.968490 0.249030 0.003297 
0.970121 0.242603 0.003096 
0.971453 0.237216 0.002955 
0.972530 0.232762 0.002864 
0.973382 0.229173 0.002815 
0.974024 0.226426 0.002800 
0.974459 0.224547 0.002813 
0.974670 0.223628 0.002848 
0.974623 0.223834 0.002894 
0.974257 0.225422 0.002939 
0.973479 0.228757 0.002961 
0.972150 0.234341 0.002928 
0.970066 0.242826 0.002789 
0.966930 0.255029 0.002468 
0.962315 0.271931 0.001859 
0.955614 0.294621 0.000823 
0.945994 0.324184 -0.000811 
0.932370 0.361491 -0.003224 
0.913451 0.406896 -0.006573 
0.887905 0.459896 -0.010956 
0.854673 0.518908 -0.016389 
0.813339 0.581341 -0.022860 
0.764393 0.644028 -0.030518 
0.709290 0.703779 -0.040029 
0.650581 0.757585 -0.053001 
0.593017 0.801984 -0.071780 
0.547531 0.831339 -0.095321 
0.547046 0.831413 0.097431 
0.585066 0.807593 0.074101 
0.630334 0.774294 0.056100 
0.674052 0.737336 0.044613 
0.713658 0.699505 0.037218 
0.748800 0.662021 0.032049 
0.779818 0.625376 0.028073 
0.807196 0.589763 0.024774 
0.831378 0.555276 0.021900 
0.852727 0.522000 0.019325 
0.871527 0.490053 0.016982 
0.888006 0.459593 0.014843 
0.902351 0.430809 0.012893 
0.914736 0.403899 0.011132 
0.925330 0.379043 0.009560 
0.934307 0.356375 0.008179 
0.941847 0.335968 0.006988 
0.948130 0.317826 0.005978 
0.953331 0.301885 0.005138 
0.957613 0.288024 0.004453 
0.961125 0.276084 0.003904 
0.963999 0.265882 0.003474 
0.966346 0.257228 0.003145 
0.968258 0.249938 0.002899 
0.969809 0.243849 0.002723 
0.971060 0.238823 0.002605 
0.972050 0.234760 0.002533 
0.972808 0.231600 0.002500 
0.973345 0.229332 0.002498 
0.973658 0.228001 0.002519 
0.973723 0.227722 0.002555 
0.973497 0.228687 0.002593 
0.972906 0.231185 0.002618 
0.971842 0.235619 0.002603 
0.970143 0.242522 0.002509 
0.967574 0.252577 0.002278 
0.963803 0.266610 0.001827 
0.958357 0.285571 0.001045 
0.950588 0.310457 -0.000206 
0.939635 0.342171 -0.002083 
0.924440 0.381299 -0.004736 
0.903823 0.427826 -0.008277 
0.876690 0.480886 -0.012746 
0.842314 0.538682 -0.018113 
0.800604 0.598698 -0.024353 
0.752214 0.658159 -0.031648 
0.698490 0.714460 -0.040724 
0.641629 0.765164 -0.053248 
0.585894 0.807219 -0.071595 
0.541671 0.835233 -0.094758 
0.543361 0.833918 0.096644 
0.581402 0.810290 0.073499 
0.626766 0.777218 0.055637 
0.670668 0.740437 0.044230 
0.710544 0.702686 0.036874 
0.746029 0.665158 0.031719 
0.777448 0.628335 0.027740 
0.805264 0.592414 0.024424 
0.829896 0.557503 0.021523 
0.851682 0.523717 0.018913 
0.870883 0.491212 0.016532 
0.887705 0.460189 0.014355 
0.902324 0.430881 0.012373 
0.914907 0.403525 0.010587 
0.925628 0.378328 0.009001 
0.934668 0.355441 0.007618 
0.942218 0.334939 0.006434 
0.948471 0.316816 0.005441 
0.953615 0.300993 0.004624 
0.957823 0.287331 0.003966 
0.961252 0.275651 0.003447 
0.964036 0.265754 0.003046 
0.966291 0.257436 0.002745 
0.968111 0.250508 0.002526 
0.969571 0.244801 0.002374 
0.970726 0.240179 0.002277 
0.971617 0.236548 0.002223 
0.972268 0.233857 0.002204 
0.972687 0.232111 0.002211 
0.972863 0.231373 0.002235 
0.972765 0.231781 0.002267 
0.972341 0.233554 0.002292 
0.971504 0.237012 0.002289 
0.970127 0.242588 0.002227 
0.968026 0.250842 0.002062 
0.964939 0.262469 0.001730 
0.960498 0.278284 0.001142 
0.954197 0.299180 0.000188 
0.945358 0.326032 -0.001266 
0.933124 0.359540 -0.003356 
0.916493 0.400002 -0.006199 
0.894437 0.447085 -0.009863 
0.866100 0.499665 -0.014344 
0.831040 0.555868 -0.019584 
0.789386 0.613364 -0.025568 
0.741835 0.669794 -0.032519 
0.689559 0.723056 -0.041221 
0.634421 0.771142 -0.053387 
0.580289 0.811274 -0.071405 
0.537132 0.838212 -0.094284 
0.540141 0.836085 0.095964 
0.578213 0.812615 0.072980 
0.623686 0.779721 0.055240 
0.667783 0.743060 0.043902 
0.707938 0.705326 0.036579 
0.743776 0.667690 0.031432 
0.775603 0.630624 0.027442 
0.803860 0.594330 0.024103 
0.828941 0.558936 0.021167 
0.851155 0.524589 0.018514 
0.870737 0.491486 0.016090 
0.887874 0.459878 0.013870 
0.902729 0.430046 0.011853 
0.915468 0.402265 0.010042 
0.926269 0.376769 0.008443 
0.935325 0.353719 0.007060 
0.942842 0.333188 0.005887 
0.949028 0.315155 0.004914 
0.954081 0.299522 0.004124 
0.958185 0.286127 0.003496 
0.961505 0.274771 0.003008 
0.964180 0.265236 0.002639 
0.966327 0.257307 0.002366 
0.968040 0.250786 0.002174 
0.969394 0.245502 0.002045 
0.970443 0.241324 0.001967 
0.971224 0.238162 0.001929 
0.971756 0.235979 0.001921 
0.972044 0.234793 0.001933 
0.972069 0.234688 0.001957 
0.971794 0.235825 0.001980 
0.971153 0.238448 0.001984 
0.970049 0.242903 0.001946 
0.968335 0.249647 0.001830 
0.965807 0.259258 0.001586 
0.962175 0.272428 0.001146 
0.957044 0.289941 0.000420 
0.949881 0.312610 -0.000702 
0.940000 0.341165 -0.002339 
0.926571 0.376093 -0.004607 
0.908678 0.417429 -0.007589 
0.885457 0.464584 -0.011315 
0.856277 0.516277 -0.015749 
0.820917 0.570668 -0.020825 
0.779633 0.625674 -0.026547 
0.733081 0.679331 -0.033185 
0.682233 0.729952 -0.041574 
0.628658 0.775842 -0.053457 
0.575913 0.814402 -0.071226 
0.533653 0.840475 -0.093894 
0.537333 0.837960 0.095376 
0.575448 0.814615 0.072535 
0.621045 0.781850 0.054901 
0.665356 0.745251 0.043623 
0.705808 0.707471 0.036325 
0.742015 0.669658 0.031179 
0.774265 0.632278 0.027172 
0.802973 0.595539 0.023801 
0.828505 0.559595 0.020822 
0.851139 0.524628 0.018120 
0.871084 0.490886 0.015645 
0.888505 0.458672 0.013379 
0.903557 0.428319 0.011324 
0.916405 0.400140 0.009489 
0.927237 0.374392 0.007881 
0.936262 0.351242 0.006501 
0.943702 0.330754 0.005344 
0.949780 0.312888 0.004396 
0.954709 0.297520 0.003636 
0.958682 0.284462 0.003041 
0.961871 0.273492 0.002587 
0.964417 0.264375 0.002249 
0.966440 0.256884 0.002006 
0.968034 0.250813 0.001839 
0.969270 0.245992 0.001732 
0.970202 0.242293 0.001672 
0.970862 0.239635 0.001647 
0.971266 0.237993 0.001647 
0.971410 0.237401 0.001662 
0.971272 0.237965 0.001681 
0.970805 0.239864 0.001689 
0.969933 0.243367 0.001667 
0.968542 0.248843 0.001587 
0.966473 0.256766 0.001410 
0.963497 0.267717 0.001082 
0.959305 0.282373 0.000531 
0.953476 0.301467 -0.000332 
0.945467 0.325715 -0.001609 
0.934598 0.355690 -0.003407 
0.920087 0.391671 -0.005815 
0.901126 0.433466 -0.008889 
0.877014 0.480299 -0.012625 
0.847312 0.530825 -0.016969 
0.811956 0.583309 -0.021860 
0.771253 0.635942 -0.027332 
0.725770 0.687112 -0.033694 
0.676277 0.735460 -0.041824 
0.624095 0.779516 -0.053486 
0.572540 0.816791 -0.071071 
0.531033 0.842167 -0.093586 
0.534896 0.839575 0.094871 
0.573067 0.816326 0.072154 
0.618808 0.783641 0.054613 
0.663355 0.747046 0.043385 
0.704130 0.709153 0.036105 
0.740730 0.671089 0.030953 
0.773425 0.633316 0.026921 
0.802600 0.596054 0.023510 
0.828589 0.559483 0.020480 
0.851636 0.523834 0.017721 
0.871922 0.489408 0.015189 
0.889594 0.456570 0.012873 
0.904798 0.425704 0.010780 
0.917706 0.397161 0.008922 
0.928517 0.371218 0.007308 
0.937460 0.348041 0.005937 
0.944778 0.327677 0.004801 
0.950710 0.310058 0.003883 
0.955482 0.295032 0.003157 
0.959299 0.282382 0.002599 
0.962334 0.271860 0.002180 
0.964735 0.263215 0.001875 
0.966621 0.256207 0.001662 
0.968083 0.250626 0.001520 
0.969192 0.246303 0.001434 
0.969996 0.243115 0.001389 
0.970526 0.240992 0.001375 
0.970792 0.239921 0.001380 
0.970783 0.239954 0.001394 
0.970471 0.241213 0.001403 
0.969799 0.243900 0.001392 
0.968681 0.248305 0.001338 
0.966990 0.254811 0.001210 
0.964549 0.263901 0.000967 
0.961113 0.276154 0.000550 
0.956353 0.292213 -0.000111 
0.949836 0.312747 -0.001104 
0.941014 0.338359 -0.002521 
0.929233 0.369467 -0.004453 
0.913777 0.406157 -0.006966 
0.893949 0.448054 -0.010087 
0.869202 0.494265 -0.013792 
0.839249 0.543448 -0.018020 
0.804126 0.594025 -0.022720 
0.764134 0.644452 -0.027958 
0.719726 0.693422 -0.034082 
0.671486 0.739826 -0.042002 
0.620532 0.782355 -0.053495 
0.569994 0.818580 -0.070947 
0.529116 0.843399 -0.093352 
0.532796 0.840958 0.094440 
0.571041 0.817773 0.071830 
0.616951 0.785121 0.054369 
0.661764 0.748468 0.043183 
0.702891 0.710390 0.035913 
0.739917 0.671995 0.030747 
0.773084 0.633742 0.026682 
0.802747 0.595868 0.023222 
0.829200 0.558590 0.020131 
0.852653 0.522191 0.017307 
0.873256 0.487039 0.014713 
0.891139 0.453562 0.012344 
0.906445 0.422200 0.010214 
0.919355 0.393340 0.008337 
0.930090 0.367270 0.006722 
0.938900 0.344147 0.005366 
0.946050 0.323993 0.004258 
0.951797 0.306709 0.003374 
0.956383 0.292104 0.002688 
0.960018 0.279931 0.002169 
0.962882 0.269918 0.001787 
0.965122 0.261795 0.001516 
0.966858 0.255313 0.001332 
0.968178 0.250259 0.001214 
0.969151 0.246465 0.001147 
0.969821 0.243817 0.001116 
0.970212 0.242254 0.001110 
0.970331 0.241779 0.001117 
0.970161 0.242459 0.001126 
0.969665 0.244435 0.001121 
0.968778 0.247928 0.001086 
0.967402 0.253242 0.000995 
0.965400 0.260773 0.000815 
0.962578 0.271005 0.000501 
0.958676 0.284499 -0.000005 
0.953353 0.301857 -0.000773 
0.946168 0.323669 -0.001886 
0.936585 0.350423 -0.003425 
0.923988 0.382383 -0.005464 
0.907732 0.419473 -0.008047 
0.887236 0.461181 -0.011179 
0.862081 0.506553 -0.014824 
0.832098 0.554306 -0.018918 
0.797369 0.603037 -0.023432 
0.758156 0.651452 -0.028459 
0.714789 0.698494 -0.034382 
0.667688 0.743248 -0.042132 