# OOMMF: rectangular mesh v0.99 
# Segment count: 1 
# Begin: Segment 
# Begin: Header 
# Title: model.omf 
# Desc: 
# meshunit: unknown 
# xbase: 0 
# ybase: 0 
# zbase: 0 
# xstepsize: 1
# ystepsize: 1 
# zstepsize: 1 
# xnodes: 50 
# ynodes: 50 
# znodes: 4 
# xmin: -0.5 
# ymin: -0.5 
# zmin: -0.5 
# xmax: 49.500000 
# ymax: 49.500000 
# zmax: 3.500000 
# valueunit: Ms 
# valuemultiplier: 1 
# ValueRangeMaxMag:  1. 
# ValueRangeMinMag:  1e-8 
# End: Header 
# Begin: data text 
0.753254 0.639184 0.155088 
0.790453 0.597178 0.136242 
0.826711 0.549835 0.119290 
0.856852 0.504555 0.105966 
0.880892 0.463599 0.095417 
0.899924 0.427329 0.086759 
0.915073 0.395390 0.079428 
0.927259 0.367218 0.073087 
0.937181 0.342245 0.067529 
0.945358 0.319965 0.062611 
0.952174 0.299958 0.058227 
0.957911 0.281885 0.054294 
0.962780 0.265478 0.050747 
0.966942 0.250527 0.047535 
0.970516 0.236871 0.044618 
0.973597 0.224383 0.041963 
0.976259 0.212964 0.039546 
0.978564 0.202531 0.037345 
0.980560 0.193012 0.035345 
0.982290 0.184344 0.033529 
0.983791 0.176462 0.031884 
0.985095 0.169304 0.030395 
0.986230 0.162807 0.029049 
0.987221 0.156907 0.027833 
0.988089 0.151542 0.026733 
0.988854 0.146648 0.025738 
0.989531 0.142166 0.024834 
0.990136 0.138039 0.024010 
0.990679 0.134216 0.023256 
0.991172 0.130650 0.022562 
0.991622 0.127303 0.021923 
0.992035 0.124145 0.021331 
0.992416 0.121157 0.020784 
0.992767 0.118332 0.020281 
0.993089 0.115681 0.019826 
0.993379 0.113233 0.019422 
0.993632 0.111047 0.019083 
0.993840 0.109216 0.018822 
0.993989 0.107879 0.018659 
0.994059 0.107234 0.018616 
0.994023 0.107557 0.018713 
0.993838 0.109209 0.018955 
0.993447 0.112652 0.019296 
0.992771 0.118422 0.019568 
0.991709 0.127044 0.019313 
0.990167 0.138799 0.017443 
0.988126 0.153207 0.011615 
0.985769 0.168087 -0.002531 
0.983452 0.178517 -0.030882 
0.981243 0.178685 -0.072339 
0.728390 0.669814 0.144216 
0.766875 0.630640 0.119149 
0.806328 0.582974 0.099880 
0.839465 0.536462 0.086638 
0.865990 0.494085 0.077087 
0.887059 0.456369 0.069665 
0.903900 0.422996 0.063551 
0.917507 0.393418 0.058331 
0.928636 0.367074 0.053779 
0.937845 0.343468 0.049761 
0.945549 0.322186 0.046182 
0.952055 0.302894 0.042972 
0.957592 0.285327 0.040078 
0.962333 0.269282 0.037456 
0.966411 0.254597 0.035075 
0.969929 0.241151 0.032910 
0.972971 0.228845 0.030939 
0.975603 0.217597 0.029148 
0.977883 0.207336 0.027521 
0.979857 0.197995 0.026048 
0.981568 0.189509 0.024717 
0.983052 0.181811 0.023515 
0.984343 0.174833 0.022433 
0.985467 0.168506 0.021459 
0.986451 0.162761 0.020582 
0.987316 0.157529 0.019792 
0.988081 0.152746 0.019078 
0.988763 0.148350 0.018431 
0.989375 0.144285 0.017843 
0.989929 0.140501 0.017306 
0.990434 0.136957 0.016815 
0.990897 0.133624 0.016365 
0.991322 0.130483 0.015955 
0.991712 0.127531 0.015584 
0.992067 0.124785 0.015256 
0.992382 0.122288 0.014976 
0.992650 0.120116 0.014753 
0.992860 0.118388 0.014602 
0.992992 0.117282 0.014538 
0.993018 0.117056 0.014578 
0.992897 0.118065 0.014735 
0.992564 0.120799 0.015002 
0.991924 0.125901 0.015322 
0.990835 0.134187 0.015511 
0.989078 0.146618 0.015086 
0.986347 0.164175 0.012913 
0.982238 0.187528 0.006531 
0.976274 0.216361 -0.008759 
0.967916 0.248144 -0.039531 
0.957475 0.275787 -0.084752 
0.701547 0.699769 0.134741 
0.739782 0.664288 0.106975 
0.781207 0.618307 0.086095 
0.817151 0.571829 0.072634 
0.846463 0.528635 0.063606 
0.870029 0.489698 0.056977 
0.889035 0.454912 0.051698 
0.904506 0.423834 0.047267 
0.917239 0.395963 0.043434 
0.927833 0.370838 0.040061 
0.936736 0.348068 0.037060 
0.944283 0.327336 0.034369 
0.950724 0.308390 0.031942 
0.956251 0.291032 0.029745 
0.961012 0.275112 0.027749 
0.965122 0.260512 0.025936 
0.968676 0.247139 0.024288 
0.971749 0.234914 0.022793 
0.974407 0.223766 0.021439 
0.976706 0.213627 0.020218 
0.978695 0.204428 0.019119 
0.980417 0.196098 0.018132 
0.981910 0.188562 0.017249 
0.983208 0.181745 0.016460 
0.984341 0.175571 0.015755 
0.985334 0.169963 0.015124 
0.986211 0.164850 0.014560 
0.986990 0.160163 0.014054 
0.987688 0.155842 0.013599 
0.988318 0.151834 0.013189 
0.988890 0.148096 0.012820 
0.989412 0.144598 0.012488 
0.989888 0.141326 0.012194 
0.990321 0.138284 0.011936 
0.990708 0.135503 0.011720 
0.991043 0.133044 0.011551 
0.991315 0.131013 0.011438 
0.991505 0.129572 0.011394 
0.991583 0.128964 0.011430 
0.991507 0.129537 0.011559 
0.991209 0.131780 0.011784 
0.990583 0.136377 0.012082 
0.989463 0.144259 0.012369 
0.987574 0.156664 0.012421 
0.984466 0.175188 0.011693 
0.979400 0.201733 0.008957 
0.971207 0.238231 0.001626 
0.958219 0.285638 -0.015085 
0.938848 0.341042 -0.047476 
0.915887 0.390438 -0.093325 
0.676583 0.725247 0.127482 
0.714502 0.692569 0.099171 
0.756990 0.648782 0.077775 
0.794965 0.603244 0.064248 
0.826622 0.560014 0.055493 
0.852483 0.520426 0.049289 
0.873589 0.484628 0.044473 
0.890930 0.452333 0.040487 
0.905308 0.423136 0.037063 
0.917343 0.396637 0.034057 
0.927507 0.372486 0.031386 
0.936154 0.350392 0.028990 
0.943557 0.330122 0.026830 
0.949922 0.311497 0.024873 
0.955410 0.294377 0.023097 
0.960151 0.278655 0.021484 
0.964248 0.264244 0.020021 
0.967788 0.251070 0.018698 
0.970846 0.239066 0.017505 
0.973485 0.228161 0.016433 
0.975762 0.218285 0.015474 
0.977729 0.209361 0.014619 
0.979430 0.201308 0.013860 
0.980904 0.194043 0.013187 
0.982187 0.187483 0.012592 
0.983309 0.181543 0.012066 
0.984296 0.176144 0.011601 
0.985170 0.171213 0.011189 
0.985951 0.166684 0.010824 
0.986652 0.162502 0.010502 
0.987286 0.158624 0.010218 
0.987861 0.155021 0.009971 
0.988380 0.151687 0.009760 
0.988845 0.148637 0.009586 
0.989251 0.145918 0.009455 
0.989589 0.143620 0.009372 
0.989839 0.141886 0.009346 
0.989974 0.140937 0.009387 
0.989950 0.141097 0.009503 
0.989700 0.142829 0.009698 
0.989117 0.146792 0.009961 
0.988032 0.153906 0.010243 
0.986165 0.165441 0.010419 
0.983040 0.183107 0.010201 
0.977849 0.209121 0.008960 
0.969225 0.246120 0.005378 
0.954993 0.296612 -0.003138 
0.932251 0.361198 -0.021074 
0.899215 0.434191 -0.053767 
0.863031 0.495575 -0.097893 
0.654590 0.746097 0.121867 
0.692370 0.715410 0.093875 
0.735510 0.673615 0.072582 
0.774891 0.629319 0.059174 
0.808342 0.586533 0.050615 
0.836092 0.546768 0.044658 
0.859020 0.510369 0.040100 
0.878042 0.477200 0.036361 
0.893939 0.446960 0.033162 
0.907330 0.419322 0.030359 
0.918695 0.393984 0.027867 
0.928402 0.370692 0.025632 
0.936735 0.349241 0.023615 
0.943914 0.329471 0.021788 
0.950111 0.311262 0.020131 
0.955464 0.294518 0.018627 
0.960088 0.279163 0.017267 
0.964079 0.265131 0.016040 
0.967519 0.252356 0.014938 
0.970482 0.240770 0.013953 
0.973033 0.230297 0.013078 
0.975229 0.220857 0.012304 
0.977122 0.212363 0.011622 
0.978758 0.204724 0.011024 
0.980176 0.197848 0.010500 
0.981413 0.191645 0.010043 
0.982497 0.186028 0.009645 
0.983454 0.180918 0.009298 
0.984305 0.176247 0.008996 
0.985066 0.171958 0.008736 
0.985749 0.168009 0.008514 
0.986362 0.164377 0.008328 
0.986910 0.161064 0.008180 
0.987390 0.158100 0.008070 
0.987795 0.155556 0.008004 
0.988108 0.153554 0.007987 
0.988304 0.152286 0.008027 
0.988341 0.152042 0.008131 
0.988154 0.153242 0.008299 
0.987643 0.156486 0.008525 
0.986649 0.162623 0.008773 
0.984910 0.172833 0.008962 
0.981989 0.188727 0.008911 
0.977139 0.212441 0.008256 
0.969089 0.246631 0.006285 
0.955746 0.294189 0.001645 
0.933985 0.357221 -0.008109 
0.900253 0.434538 -0.026877 
0.853933 0.517048 -0.058825 
0.807041 0.581959 -0.100045 
0.635659 0.762997 0.117363 
0.673424 0.733762 0.089963 
0.717028 0.693618 0.069027 
0.757403 0.650555 0.055836 
0.792197 0.608418 0.047454 
0.821440 0.568772 0.041664 
0.845873 0.532081 0.037265 
0.866336 0.498325 0.033673 
0.883569 0.467300 0.030607 
0.898177 0.438746 0.027920 
0.910637 0.412418 0.025531 
0.921321 0.388099 0.023385 
0.930518 0.365617 0.021448 
0.938456 0.344838 0.019692 
0.945313 0.325661 0.018100 
0.951238 0.308009 0.016657 
0.956351 0.291817 0.015354 
0.960757 0.277028 0.014183 
0.964548 0.263579 0.013136 
0.967805 0.251404 0.012206 
0.970601 0.240425 0.011385 
0.973001 0.230556 0.010664 
0.975063 0.221703 0.010035 
0.976838 0.213769 0.009489 
0.978373 0.206653 0.009017 
0.979705 0.200259 0.008610 
0.980869 0.194493 0.008261 
0.981892 0.189274 0.007962 
0.982797 0.184529 0.007709 
0.983601 0.180202 0.007496 
0.984317 0.176254 0.007322 
0.984953 0.172671 0.007185 
0.985511 0.169465 0.007086 
0.985985 0.166686 0.007027 
0.986363 0.164433 0.007013 
0.986623 0.162869 0.007048 
0.986725 0.162243 0.007136 
0.986612 0.162923 0.007280 
0.986192 0.165438 0.007471 
0.985321 0.170541 0.007683 
0.983767 0.179278 0.007855 
0.981151 0.193085 0.007860 
0.976833 0.213875 0.007457 
0.969738 0.244071 0.006210 
0.958086 0.286461 0.003356 
0.939115 0.343594 -0.002418 
0.909130 0.416301 -0.013270 
0.864865 0.500960 -0.032384 
0.807915 0.585933 -0.062899 
0.754186 0.648867 -0.100872 
0.619511 0.776719 0.113641 
0.657315 0.748591 0.086879 
0.701276 0.709793 0.066371 
0.742381 0.667844 0.053429 
0.778187 0.626404 0.045210 
0.808600 0.587028 0.039548 
0.834259 0.550244 0.035259 
0.855932 0.516112 0.031764 
0.874317 0.484501 0.028782 
0.889996 0.455217 0.026168 
0.903434 0.428063 0.023841 
0.915000 0.402866 0.021748 
0.924984 0.379487 0.019857 
0.933615 0.357819 0.018141 
0.941076 0.337787 0.016586 
0.947521 0.319332 0.015178 
0.953079 0.302403 0.013910 
0.957860 0.286952 0.012775 
0.961964 0.272924 0.011764 
0.965480 0.260250 0.010871 
0.968489 0.248851 0.010089 
0.971064 0.238636 0.009408 
0.973268 0.229505 0.008819 
0.975159 0.221351 0.008314 
0.976787 0.214069 0.007882 
0.978195 0.207553 0.007515 
0.979420 0.201706 0.007206 
0.980491 0.196443 0.006947 
0.981433 0.191689 0.006733 
0.982263 0.187392 0.006560 
0.982996 0.183516 0.006426 
0.983636 0.180058 0.006330 
0.984182 0.177047 0.006272 
0.984628 0.174554 0.006255 
0.984952 0.172713 0.006282 
0.985123 0.171732 0.006355 
0.985088 0.171927 0.006476 
0.984767 0.173752 0.006637 
0.984033 0.177857 0.006817 
0.982686 0.185149 0.006969 
0.980405 0.196868 0.006998 
0.976663 0.214673 0.006729 
0.970586 0.240685 0.005866 
0.960742 0.277417 0.003919 
0.944882 0.327411 0.000120 
0.919800 0.392330 -0.006715 
0.881814 0.471239 -0.018370 
0.828800 0.558297 -0.037349 
0.764797 0.640874 -0.066072 
0.707843 0.699119 -0.100950 
0.605766 0.787930 0.110514 
0.643622 0.760681 0.084352 
0.687864 0.722989 0.064267 
0.729522 0.682011 0.051568 
0.766106 0.641240 0.043498 
0.797446 0.602196 0.037940 
0.824105 0.565431 0.033734 
0.846792 0.531060 0.030308 
0.866165 0.499008 0.027383 
0.882779 0.469132 0.024817 
0.897085 0.441282 0.022529 
0.909442 0.415326 0.020469 
0.920135 0.391158 0.018604 
0.929393 0.368704 0.016911 
0.937401 0.347913 0.015377 
0.944315 0.328745 0.013991 
0.950269 0.311169 0.012745 
0.955382 0.295144 0.011633 
0.959760 0.280620 0.010649 
0.963500 0.267531 0.009784 
0.966689 0.255794 0.009033 
0.969408 0.245311 0.008384 
0.971727 0.235976 0.007829 
0.973709 0.227675 0.007357 
0.975409 0.220294 0.006960 
0.976872 0.213722 0.006628 
0.978139 0.207857 0.006354 
0.979240 0.202612 0.006129 
0.980202 0.197913 0.005950 
0.981042 0.193709 0.005812 
0.981772 0.189975 0.005712 
0.982397 0.186720 0.005651 
0.982912 0.183989 0.005628 
0.983304 0.181885 0.005646 
0.983544 0.180577 0.005705 
0.983589 0.180328 0.005804 
0.983369 0.181523 0.005939 
0.982774 0.184714 0.006092 
0.981634 0.190670 0.006227 
0.979684 0.200449 0.006270 
0.976493 0.215463 0.006091 
0.971365 0.237531 0.005471 
0.963174 0.268849 0.004068 
0.950155 0.311776 0.001375 
0.929718 0.368257 -0.003327 
0.898564 0.438704 -0.011030 
0.853602 0.520412 -0.023126 
0.794292 0.606111 -0.041576 
0.726624 0.683621 -0.068413 
0.669072 0.736360 -0.100580 
0.594052 0.797162 0.107865 
0.631954 0.770630 0.082241 
0.676417 0.733858 0.062544 
0.718506 0.693716 0.050071 
0.755704 0.653557 0.042132 
0.787790 0.614851 0.036661 
0.815274 0.578162 0.032519 
0.838816 0.543634 0.029144 
0.859040 0.511234 0.026260 
0.876474 0.480864 0.023726 
0.891550 0.452413 0.021462 
0.904615 0.425787 0.019420 
0.915946 0.400917 0.017569 
0.925768 0.377758 0.015888 
0.934266 0.356287 0.014365 
0.941599 0.336487 0.012991 
0.947903 0.318341 0.011759 
0.953305 0.301820 0.010664 
0.957918 0.286880 0.009700 
0.961845 0.273452 0.008860 
0.965182 0.261452 0.008134 
0.968016 0.250774 0.007514 
0.970424 0.241306 0.006989 
0.972473 0.232924 0.006549 
0.974222 0.225507 0.006183 
0.975720 0.218941 0.005882 
0.977010 0.213118 0.005639 
0.978124 0.207949 0.005446 
0.979089 0.203364 0.005297 
0.979921 0.199318 0.005190 
0.980632 0.195794 0.005122 
0.981222 0.192816 0.005091 
0.981683 0.190454 0.005097 
0.981994 0.188841 0.005142 
0.982119 0.188189 0.005223 
0.981997 0.188820 0.005335 
0.981537 0.191193 0.005466 
0.980596 0.195958 0.005585 
0.978954 0.204003 0.005638 
0.976263 0.216519 0.005524 
0.971971 0.235047 0.005079 
0.965202 0.261475 0.004049 
0.954590 0.297915 0.002068 
0.938109 0.346337 -0.001355 
0.913036 0.407822 -0.006836 
0.876349 0.481439 -0.015143 
0.825944 0.563090 -0.027325 
0.762831 0.645030 -0.044988 
0.694119 0.716446 -0.070029 
0.637564 0.763887 -0.099940 
0.584038 0.804827 0.105609 
0.621974 0.778893 0.080460 
0.666613 0.742895 0.061110 
0.709046 0.703469 0.048838 
0.746740 0.663850 0.041015 
0.779441 0.625463 0.035617 
0.807616 0.588866 0.031526 
0.831891 0.554223 0.028188 
0.852855 0.521533 0.025332 
0.871012 0.490731 0.022818 
0.886775 0.461744 0.020567 
0.900475 0.434513 0.018533 
0.912380 0.409004 0.016686 
0.922709 0.385205 0.015009 
0.931645 0.363119 0.013489 
0.939347 0.342753 0.012121 
0.945958 0.324107 0.010898 
0.951606 0.307163 0.009817 
0.956415 0.291877 0.008870 
0.960494 0.278183 0.008050 
0.963948 0.265990 0.007349 
0.966868 0.255188 0.006755 
0.969338 0.245651 0.006258 
0.971431 0.237252 0.005846 
0.973208 0.229861 0.005510 
0.974723 0.223357 0.005238 
0.976018 0.217633 0.005024 
0.977128 0.212598 0.004860 
0.978078 0.208185 0.004740 
0.978886 0.204356 0.004660 
0.979558 0.201109 0.004619 
0.980093 0.198484 0.004614 
0.980477 0.196578 0.004644 
0.980681 0.195558 0.004708 
0.980655 0.195685 0.004801 
0.980323 0.197339 0.004912 
0.979566 0.201060 0.005018 
0.978203 0.207590 0.005076 
0.975953 0.217924 0.005011 
0.972379 0.233359 0.004696 
0.966801 0.255501 0.003940 
0.958166 0.286201 0.002466 
0.944911 0.327328 -0.000091 
0.924869 0.380263 -0.004169 
0.895418 0.445108 -0.010251 
0.854114 0.519743 -0.018885 
0.799963 0.599255 -0.030867 
0.735166 0.676212 -0.047617 
0.667157 0.741521 -0.071057 
0.612401 0.784305 -0.099152 
0.575446 0.811241 0.103682 
0.613405 0.785812 0.078949 
0.658185 0.750470 0.059904 
0.700898 0.711657 0.047811 
0.739005 0.672506 0.040088 
0.772224 0.634399 0.034751 
0.800993 0.597886 0.030700 
0.825905 0.563144 0.027389 
0.847523 0.530191 0.024551 
0.866325 0.498993 0.022046 
0.882705 0.469510 0.019799 
0.896978 0.441717 0.017764 
0.909401 0.415616 0.015914 
0.920185 0.391226 0.014233 
0.929509 0.368579 0.012712 
0.937535 0.347706 0.011345 
0.944407 0.328623 0.010128 
0.950262 0.311319 0.009057 
0.955229 0.295757 0.008126 
0.959426 0.281866 0.007326 
0.962964 0.269548 0.006647 
0.965943 0.258685 0.006079 
0.968450 0.249144 0.005609 
0.970564 0.240788 0.005225 
0.972349 0.233480 0.004916 
0.973861 0.227095 0.004673 
0.975145 0.221523 0.004486 
0.976234 0.216675 0.004348 
0.977154 0.212490 0.004254 
0.977920 0.208939 0.004200 
0.978536 0.206034 0.004182 
0.978996 0.203837 0.004198 
0.979279 0.202473 0.004246 
0.979345 0.202148 0.004322 
0.979133 0.203171 0.004415 
0.978544 0.205987 0.004508 
0.977430 0.211209 0.004569 
0.975565 0.219666 0.004539 
0.972601 0.232441 0.004322 
0.968008 0.250890 0.003772 
0.960977 0.276615 0.002675 
0.950305 0.311319 0.000749 
0.934300 0.356480 -0.002344 
0.910803 0.412783 -0.006962 
0.877503 0.479382 -0.013444 
0.832692 0.553293 -0.022157 
0.776380 0.629361 -0.033741 
0.711475 0.700962 -0.049564 
0.645171 0.760672 -0.071641 
0.592502 0.799548 -0.098304 
0.568044 0.816649 0.102033 
0.606017 0.791651 0.077662 
0.650912 0.756866 0.058885 
0.693863 0.718575 0.046948 
0.732324 0.679821 0.039313 
0.765992 0.641949 0.034026 
0.795282 0.605497 0.030006 
0.820760 0.570648 0.026713 
0.842965 0.537438 0.023883 
0.862351 0.505859 0.021380 
0.879291 0.475900 0.019129 
0.894085 0.447572 0.017086 
0.906975 0.420909 0.015226 
0.918165 0.395966 0.013536 
0.927833 0.372804 0.012008 
0.936137 0.351475 0.010639 
0.943228 0.332011 0.009426 
0.949250 0.314411 0.008365 
0.954338 0.298637 0.007448 
0.958619 0.284615 0.006667 
0.962211 0.272238 0.006011 
0.965221 0.261379 0.005468 
0.967742 0.251895 0.005024 
0.969855 0.243639 0.004668 
0.971629 0.236469 0.004386 
0.973121 0.230255 0.004170 
0.974376 0.224888 0.004008 
0.975429 0.220280 0.003895 
0.976302 0.216377 0.003825 
0.977010 0.213162 0.003792 
0.977551 0.210664 0.003794 
0.977915 0.208968 0.003827 
0.978072 0.208231 0.003886 
0.977972 0.208698 0.003963 
0.977536 0.210730 0.004045 
0.976643 0.214831 0.004105 
0.975109 0.221687 0.004099 
0.972661 0.232196 0.003955 
0.968881 0.247500 0.003559 
0.963146 0.268966 0.002747 
0.954530 0.298112 0.001298 
0.941723 0.336388 -0.001061 
0.922995 0.384785 -0.004619 
0.896336 0.443271 -0.009638 
0.859893 0.510213 -0.016327 
0.812706 0.582141 -0.024924 
0.755538 0.654115 -0.036002 
0.691567 0.720512 -0.050955 
0.627439 0.775338 -0.071908 
0.576850 0.811015 -0.097458 
0.561641 0.821240 0.100617 
0.599624 0.796611 0.076561 
0.644618 0.762300 0.058019 
0.687777 0.724449 0.046219 
0.726550 0.686025 0.038660 
0.760619 0.648338 0.033415 
0.790378 0.611912 0.029417 
0.816372 0.576935 0.026135 
0.839113 0.543457 0.023306 
0.859035 0.511494 0.020797 
0.876490 0.481064 0.018533 
0.891758 0.452212 0.016475 
0.905072 0.425008 0.014600 
0.916625 0.399541 0.012895 
0.926590 0.375901 0.011358 
0.935130 0.354164 0.009985 
0.942399 0.334375 0.008775 
0.948548 0.316539 0.007722 
0.953721 0.300617 0.006820 
0.958053 0.286528 0.006059 
0.961670 0.274157 0.005426 
0.964684 0.263363 0.004909 
0.967195 0.253995 0.004492 
0.969287 0.245895 0.004162 
0.971032 0.238916 0.003907 
0.972488 0.232925 0.003716 
0.973699 0.227812 0.003579 
0.974699 0.223494 0.003489 
0.975510 0.219926 0.003440 
0.976142 0.217104 0.003426 
0.976591 0.215077 0.003444 
0.976838 0.213953 0.003487 
0.976844 0.213924 0.003550 
0.976547 0.215275 0.003620 
0.975849 0.218417 0.003678 
0.974602 0.223912 0.003688 
0.972589 0.232505 0.003596 
0.969480 0.245147 0.003315 
0.964792 0.262999 0.002718 
0.957813 0.287387 0.001631 
0.947529 0.319670 -0.000165 
0.932575 0.360964 -0.002913 
0.911279 0.411732 -0.006844 
0.881896 0.471288 -0.012124 
0.843088 0.537445 -0.018855 
0.794544 0.606597 -0.027202 
0.737494 0.674298 -0.037735 
0.675064 0.735930 -0.051916 
0.613236 0.786614 -0.071964 
0.564572 0.819705 -0.096655 
0.556083 0.825161 0.099398 
0.594074 0.800848 0.075618 
0.639158 0.766940 0.057281 
0.682506 0.729456 0.045601 
0.721565 0.691297 0.038107 
0.756004 0.653740 0.032896 
0.786197 0.617299 0.028914 
0.812669 0.582161 0.025635 
0.835911 0.548392 0.022800 
0.856332 0.516028 0.020277 
0.874264 0.485118 0.017995 
0.889969 0.455743 0.015915 
0.903666 0.428009 0.014018 
0.915540 0.402040 0.012297 
0.925761 0.377956 0.010747 
0.934494 0.355856 0.009369 
0.941900 0.335795 0.008161 
0.948136 0.317784 0.007118 
0.953358 0.301778 0.006232 
0.957708 0.287688 0.005491 
0.961321 0.275386 0.004883 
0.964316 0.264719 0.004391 
0.966795 0.255524 0.004001 
0.968846 0.247635 0.003699 
0.970544 0.240898 0.003470 
0.971947 0.235178 0.003303 
0.973099 0.230367 0.003189 
0.974032 0.226388 0.003120 
0.974766 0.223206 0.003089 
0.975307 0.220832 0.003091 
0.975645 0.219335 0.003120 
0.975753 0.218852 0.003169 
0.975583 0.219606 0.003228 
0.975058 0.221925 0.003281 
0.974060 0.226266 0.003301 
0.972413 0.233242 0.003246 
0.969861 0.243641 0.003050 
0.966023 0.258443 0.002615 
0.960350 0.278793 0.001804 
0.952058 0.305918 0.000441 
0.940079 0.340954 -0.001678 
0.923055 0.384639 -0.004759 
0.899455 0.436922 -0.008962 
0.867867 0.496589 -0.014372 
0.827453 0.561142 -0.021016 
0.778390 0.627109 -0.029035 
0.722116 0.690669 -0.039036 
0.661515 0.748088 -0.052555 
0.601913 0.795319 -0.071888 
0.554957 0.826330 -0.095923 
0.551244 0.828528 0.098347 
0.589244 0.804484 0.074807 
0.634414 0.770914 0.056651 
0.677943 0.733731 0.045076 
0.717273 0.695775 0.037638 
0.752062 0.658293 0.032454 
0.782668 0.621787 0.028481 
0.809595 0.586447 0.025199 
0.833312 0.552351 0.022350 
0.854205 0.519559 0.019806 
0.872584 0.488151 0.017498 
0.888693 0.458244 0.015391 
0.902736 0.429985 0.013469 
0.914890 0.403533 0.011726 
0.925325 0.379038 0.010162 
0.934209 0.356619 0.008779 
0.941709 0.336342 0.007574 
0.947995 0.318217 0.006542 
0.953230 0.302192 0.005673 
0.957568 0.288166 0.004955 
0.961149 0.275996 0.004373 
0.964098 0.265517 0.003908 
0.966524 0.256551 0.003546 
0.968517 0.248925 0.003270 
0.970152 0.242479 0.003067 
0.971486 0.237078 0.002924 
0.972565 0.232614 0.002831 
0.973417 0.229021 0.002781 
0.974060 0.226274 0.002766 
0.974493 0.224400 0.002780 
0.974702 0.223491 0.002815 
0.974651 0.223712 0.002863 
0.974281 0.225318 0.002910 
0.973498 0.228678 0.002935 
0.972163 0.234289 0.002907 
0.970071 0.242805 0.002772 
0.966926 0.255043 0.002458 
0.962301 0.271982 0.001855 
0.955587 0.294708 0.000826 
0.945952 0.324306 -0.000802 
0.932310 0.361645 -0.003207 
0.913372 0.407073 -0.006551 
0.887807 0.460085 -0.010929 
0.854559 0.519096 -0.016359 
0.813215 0.581516 -0.022827 
0.764266 0.644180 -0.030484 
0.709169 0.703903 -0.039994 
0.650471 0.757682 -0.052963 
0.592918 0.802061 -0.071737 
0.547441 0.831403 -0.095273 
0.547020 0.831429 0.097438 
0.585035 0.807615 0.074109 
0.630294 0.774326 0.056111 
0.674002 0.737381 0.044628 
0.713597 0.699566 0.037237 
0.748728 0.662101 0.032074 
0.779737 0.625477 0.028104 
0.807106 0.589885 0.024811 
0.831282 0.555418 0.021942 
0.852627 0.522160 0.019371 
0.871429 0.490227 0.017030 
0.887911 0.459774 0.014891 
0.902264 0.430990 0.012939 
0.914659 0.404072 0.011173 
0.925265 0.379199 0.009594 
0.934256 0.356508 0.008206 
0.941810 0.336072 0.007005 
0.948106 0.317897 0.005987 
0.953319 0.301921 0.005138 
0.957613 0.288025 0.004445 
0.961135 0.276051 0.003890 
0.964017 0.265818 0.003454 
0.966370 0.257137 0.003120 
0.968287 0.249824 0.002871 
0.969843 0.243717 0.002692 
0.971095 0.238678 0.002572 
0.972087 0.234607 0.002499 
0.972845 0.231443 0.002465 
0.973382 0.229176 0.002463 
0.973693 0.227852 0.002484 
0.973755 0.227584 0.002521 
0.973525 0.228566 0.002562 
0.972930 0.231085 0.002589 
0.971860 0.235544 0.002578 
0.970154 0.242478 0.002488 
0.967577 0.252566 0.002263 
0.963796 0.266635 0.001818 
0.958339 0.285633 0.001043 
0.950555 0.310556 -0.000201 
0.939587 0.342304 -0.002071 
0.924373 0.381461 -0.004718 
0.903738 0.428007 -0.008253 
0.876587 0.481075 -0.012717 
0.842197 0.538866 -0.018081 
0.800480 0.598865 -0.024319 
0.752090 0.658302 -0.031613 
0.698373 0.714576 -0.040688 
0.641524 0.765255 -0.053210 
0.585801 0.807290 -0.071554 
0.541586 0.835293 -0.094711 
0.543329 0.833937 0.096651 
0.581365 0.810316 0.073508 
0.626721 0.777254 0.055648 
0.670613 0.740487 0.044245 
0.710477 0.702753 0.036895 
0.745951 0.665244 0.031745 
0.777361 0.628442 0.027772 
0.805168 0.592542 0.024462 
0.829795 0.557651 0.021566 
0.851579 0.523883 0.018959 
0.870782 0.491390 0.016581 
0.887609 0.460372 0.014403 
0.902237 0.431063 0.012418 
0.914831 0.403697 0.010627 
0.925565 0.378482 0.009034 
0.934619 0.355569 0.007642 
0.942183 0.335036 0.006449 
0.948451 0.316878 0.005447 
0.953607 0.301019 0.004621 
0.957826 0.287321 0.003956 
0.961264 0.275608 0.003430 
0.964057 0.265680 0.003024 
0.966318 0.257336 0.002718 
0.968143 0.250385 0.002496 
0.969606 0.244660 0.002342 
0.970764 0.240027 0.002243 
0.971656 0.236388 0.002188 
0.972307 0.233696 0.002168 
0.972725 0.231952 0.002175 
0.972898 0.231223 0.002200 
0.972798 0.231644 0.002233 
0.972370 0.233435 0.002260 
0.971527 0.236916 0.002260 
0.970144 0.242520 0.002202 
0.968035 0.250805 0.002042 
0.964939 0.262467 0.001716 
0.960488 0.278319 0.001135 
0.954174 0.299253 0.000187 
0.945320 0.326142 -0.001259 
0.933069 0.359682 -0.003342 
0.916420 0.400170 -0.006179 
0.894345 0.447269 -0.009837 
0.865992 0.499852 -0.014313 
0.830921 0.556047 -0.019551 
0.789263 0.613524 -0.025533 
0.741714 0.669929 -0.032483 
0.689447 0.723165 -0.041185 
0.634320 0.771227 -0.053350 
0.580200 0.811342 -0.071364 
0.537051 0.838269 -0.094238 
0.540105 0.836108 0.095971 
0.578171 0.812644 0.072990 
0.623635 0.779761 0.055252 
0.667722 0.743114 0.043919 
0.707866 0.705398 0.036600 
0.743693 0.667781 0.031459 
0.775511 0.630736 0.027475 
0.803760 0.594463 0.024142 
0.828836 0.559089 0.021210 
0.851049 0.524759 0.018562 
0.870634 0.491667 0.016138 
0.887777 0.460064 0.013918 
0.902642 0.430228 0.011897 
0.915393 0.402435 0.010080 
0.926208 0.376918 0.008474 
0.935279 0.353841 0.007082 
0.942811 0.333277 0.005900 
0.949010 0.315208 0.004918 
0.954075 0.299538 0.004119 
0.958191 0.286107 0.003483 
0.961520 0.274717 0.002989 
0.964203 0.265152 0.002614 
0.966356 0.257197 0.002338 
0.968074 0.250654 0.002142 
0.969431 0.245355 0.002011 
0.970482 0.241165 0.001932 
0.971264 0.237998 0.001893 
0.971796 0.235814 0.001884 
0.972082 0.234632 0.001897 
0.972105 0.234538 0.001922 
0.971827 0.235689 0.001946 
0.971182 0.238332 0.001953 
0.970071 0.242812 0.001918 
0.968351 0.249586 0.001806 
0.965814 0.259230 0.001567 
0.962173 0.272437 0.001133 
0.957030 0.289988 0.000414 
0.949854 0.312694 -0.000700 
0.939957 0.341285 -0.002330 
0.926509 0.376243 -0.004591 
0.908599 0.417602 -0.007567 
0.885360 0.464769 -0.011287 
0.856166 0.516462 -0.015716 
0.820797 0.570841 -0.020790 
0.779511 0.625827 -0.026512 
0.732963 0.679460 -0.033149 
0.682124 0.730055 -0.041538 
0.628561 0.775923 -0.053420 
0.575827 0.814467 -0.071187 
0.533575 0.840529 -0.093850 
0.537293 0.837985 0.095384 
0.575401 0.814648 0.072545 
0.620989 0.781893 0.054914 
0.665289 0.745309 0.043640 
0.705730 0.707548 0.036347 
0.741927 0.669754 0.031206 
0.774168 0.632395 0.027206 
0.802869 0.595678 0.023840 
0.828397 0.559753 0.020866 
0.851031 0.524802 0.018168 
0.870979 0.491070 0.015693 
0.888408 0.458859 0.013426 
0.903470 0.428500 0.011367 
0.916332 0.400306 0.009526 
0.927179 0.374535 0.007909 
0.936219 0.351357 0.006521 
0.943674 0.330834 0.005354 
0.949765 0.312932 0.004396 
0.954707 0.297526 0.003628 
0.958691 0.284432 0.003026 
0.961889 0.273428 0.002565 
0.964443 0.264282 0.002223 
0.966472 0.256765 0.001976 
0.968070 0.250674 0.001806 
0.969310 0.245838 0.001698 
0.970243 0.242128 0.001636 
0.970903 0.239466 0.001611 
0.971307 0.237825 0.001610 
0.971450 0.237240 0.001626 
0.971309 0.237815 0.001646 
0.970838 0.239731 0.001656 
0.969961 0.243256 0.001636 
0.968564 0.248759 0.001559 
0.966487 0.256712 0.001387 
0.963502 0.267698 0.001064 
0.959299 0.282392 0.000520 
0.953458 0.301525 -0.000336 
0.945434 0.325810 -0.001605 
0.934548 0.355820 -0.003395 
0.920020 0.391829 -0.005797 
0.901041 0.433643 -0.008864 
0.876913 0.480485 -0.012594 
0.847198 0.531007 -0.016935 
0.811836 0.583478 -0.021824 
0.771132 0.636090 -0.027295 
0.725654 0.687236 -0.033657 
0.676171 0.735559 -0.041788 
0.624001 0.779594 -0.053449 
0.572456 0.816853 -0.071032 
0.530957 0.842220 -0.093542 
0.534851 0.839603 0.094879 
0.573016 0.816361 0.072164 
0.618748 0.783688 0.054626 
0.663284 0.747108 0.043402 
0.704047 0.709233 0.036128 
0.740638 0.671190 0.030981 
0.773324 0.633438 0.026956 
0.802493 0.596197 0.023550 
0.828478 0.559645 0.020525 
0.851526 0.524011 0.017769 
0.871817 0.489594 0.015237 
0.889498 0.456757 0.012919 
0.904714 0.425883 0.010822 
0.917635 0.397323 0.008957 
0.928462 0.371356 0.007334 
0.937421 0.348148 0.005954 
0.944753 0.327747 0.004809 
0.950699 0.310092 0.003881 
0.955484 0.295027 0.003147 
0.959311 0.282341 0.002581 
0.962355 0.271786 0.002157 
0.964764 0.263112 0.001847 
0.966654 0.256079 0.001630 
0.968121 0.250480 0.001486 
0.969233 0.246143 0.001398 
0.970039 0.242947 0.001353 
0.970569 0.240820 0.001338 
0.970833 0.239751 0.001343 
0.970823 0.239792 0.001357 
0.970508 0.241065 0.001368 
0.969832 0.243771 0.001359 
0.968708 0.248199 0.001308 
0.967011 0.254733 0.001184 
0.964561 0.263857 0.000945 
0.961116 0.276145 0.000534 
0.956344 0.292243 -0.000121 
0.949813 0.312816 -0.001105 
0.940976 0.338465 -0.002515 
0.929178 0.369605 -0.004439 
0.913704 0.406321 -0.006945 
0.893859 0.448234 -0.010060 
0.869097 0.494450 -0.013760 
0.839134 0.543628 -0.017984 
0.804006 0.594189 -0.022683 
0.764015 0.644595 -0.027920 
0.719613 0.693541 -0.034045 
0.671382 0.739922 -0.041966 
0.620440 0.782430 -0.053459 
0.569912 0.818641 -0.070908 
0.529041 0.843450 -0.093309 
0.532747 0.840988 0.094448 
0.570986 0.817811 0.071841 
0.616886 0.785171 0.054383 
0.661688 0.748533 0.043201 
0.702805 0.710474 0.035937 
0.739821 0.672100 0.030777 
0.772980 0.633868 0.026718 
0.802636 0.596015 0.023263 
0.829087 0.558756 0.020177 
0.852542 0.522371 0.017355 
0.873151 0.487226 0.014760 
0.891044 0.453749 0.012389 
0.906363 0.422376 0.010254 
0.919288 0.393497 0.008370 
0.930039 0.367400 0.006745 
0.938865 0.344245 0.005380 
0.946029 0.324054 0.004262 
0.951790 0.306731 0.003369 
0.956388 0.292088 0.002675 
0.960033 0.279880 0.002149 
0.962905 0.269834 0.001762 
0.965153 0.261683 0.001486 
0.966893 0.255178 0.001299 
0.968218 0.250106 0.001179 
0.969193 0.246300 0.001110 
0.969864 0.243644 0.001079 
0.970256 0.242080 0.001072 
0.970373 0.241609 0.001080 
0.970201 0.242298 0.001089 
0.969702 0.244290 0.001086 
0.968810 0.247803 0.001053 
0.967429 0.253142 0.000966 
0.965419 0.260703 0.000790 
0.962588 0.270970 0.000481 
0.958676 0.284501 -0.000019 
0.953340 0.301898 -0.000780 
0.946141 0.323749 -0.001885 
0.936542 0.350539 -0.003417 
0.923927 0.382530 -0.005448 
0.907654 0.419643 -0.008023 
0.887141 0.461363 -0.011150 
0.861974 0.506737 -0.014790 
0.831981 0.554482 -0.018881 
0.797249 0.603197 -0.023394 
0.758038 0.651591 -0.028421 
0.714678 0.698610 -0.034345 
0.667587 0.743341 -0.042096 