# OOMMF: rectangular mesh v0.99 
# Segment count: 1 
# Begin: Segment 
# Begin: Header 
# Title: model.omf 
# Desc: 
# meshunit: unknown 
# xbase: 0 
# ybase: 0 
# zbase: 0 
# xstepsize: 1
# ystepsize: 1 
# zstepsize: 1 
# xnodes: 50 
# ynodes: 50 
# znodes: 4 
# xmin: -0.5 
# ymin: -0.5 
# zmin: -0.5 
# xmax: 49.500000 
# ymax: 49.500000 
# zmax: 3.500000 
# valueunit: Ms 
# valuemultiplier: 1 
# ValueRangeMaxMag:  1. 
# ValueRangeMinMag:  1e-8 
# End: Header 
# Begin: data text 
0.753235 0.639200 0.155115 
0.790434 0.597198 0.136269 
0.826692 0.549858 0.119315 
0.856836 0.504577 0.105988 
0.880881 0.463617 0.095432 
0.899919 0.427338 0.086767 
0.915075 0.395386 0.079424 
0.927269 0.367197 0.073071 
0.937199 0.342202 0.067499 
0.945384 0.319899 0.062568 
0.952206 0.299868 0.058171 
0.957948 0.281772 0.054227 
0.962821 0.265344 0.050671 
0.966985 0.250378 0.047454 
0.970559 0.236712 0.044534 
0.973638 0.224221 0.041880 
0.976297 0.212805 0.039467 
0.978597 0.202382 0.037275 
0.980588 0.192880 0.035285 
0.982312 0.184233 0.033481 
0.983807 0.176377 0.031849 
0.985106 0.169246 0.030373 
0.986235 0.162778 0.029041 
0.987221 0.156907 0.027838 
0.988085 0.151568 0.026750 
0.988846 0.146698 0.025765 
0.989520 0.142237 0.024870 
0.990122 0.138127 0.024053 
0.990664 0.134317 0.023305 
0.991156 0.130760 0.022616 
0.991606 0.127417 0.021979 
0.992019 0.124260 0.021388 
0.992401 0.121268 0.020840 
0.992754 0.118435 0.020335 
0.993077 0.115771 0.019876 
0.993369 0.113309 0.019468 
0.993625 0.111105 0.019122 
0.993835 0.109253 0.018853 
0.993987 0.107893 0.018681 
0.994060 0.107223 0.018628 
0.994027 0.107518 0.018713 
0.993846 0.109139 0.018940 
0.993460 0.112545 0.019260 
0.992790 0.118272 0.019504 
0.991737 0.126840 0.019207 
0.990208 0.138524 0.017274 
0.988187 0.152834 0.011355 
0.985854 0.167583 -0.002917 
0.983557 0.177842 -0.031425 
0.981347 0.177835 -0.073026 
0.728368 0.669831 0.144241 
0.766854 0.630660 0.119174 
0.806309 0.582997 0.099903 
0.839449 0.536484 0.086658 
0.865979 0.494102 0.077101 
0.887056 0.456375 0.069671 
0.903904 0.422988 0.063547 
0.917520 0.393390 0.058315 
0.928658 0.367023 0.053751 
0.937876 0.343391 0.049720 
0.945587 0.322082 0.046130 
0.952099 0.302765 0.042909 
0.957640 0.285177 0.040007 
0.962383 0.269115 0.037380 
0.966460 0.254420 0.034997 
0.969977 0.240971 0.032833 
0.973015 0.228669 0.030867 
0.975642 0.217434 0.029083 
0.977915 0.207192 0.027467 
0.979882 0.197876 0.026005 
0.981586 0.189418 0.024686 
0.983064 0.181751 0.023497 
0.984348 0.174805 0.022427 
0.985466 0.168509 0.021465 
0.986445 0.162793 0.020599 
0.987306 0.157588 0.019818 
0.988068 0.152828 0.019112 
0.988747 0.148451 0.018472 
0.989358 0.144399 0.017889 
0.989911 0.140624 0.017356 
0.990416 0.137085 0.016867 
0.990879 0.133751 0.016418 
0.991305 0.130605 0.016007 
0.991697 0.127644 0.015634 
0.992053 0.124885 0.015302 
0.992371 0.122371 0.015017 
0.992642 0.120178 0.014789 
0.992855 0.118427 0.014631 
0.992990 0.117295 0.014559 
0.993020 0.117039 0.014590 
0.992902 0.118017 0.014735 
0.992574 0.120716 0.014989 
0.991941 0.125777 0.015291 
0.990859 0.134016 0.015454 
0.989114 0.146388 0.014991 
0.986400 0.163868 0.012763 
0.982317 0.187120 0.006298 
0.976391 0.215819 -0.009109 
0.968077 0.247434 -0.040031 
0.957670 0.274912 -0.085394 
0.701523 0.699788 0.134765 
0.739760 0.664309 0.106999 
0.781187 0.618330 0.086116 
0.817135 0.571850 0.072652 
0.846453 0.528650 0.063618 
0.870027 0.489700 0.056981 
0.889043 0.454896 0.051692 
0.904524 0.423796 0.047250 
0.917268 0.395898 0.043405 
0.927872 0.370745 0.040020 
0.936784 0.347946 0.037007 
0.944337 0.327186 0.034307 
0.950782 0.308216 0.031873 
0.956311 0.290841 0.029670 
0.961072 0.274910 0.027674 
0.965179 0.260309 0.025862 
0.968727 0.246942 0.024219 
0.971794 0.234733 0.022732 
0.974445 0.223607 0.021388 
0.976735 0.213497 0.020178 
0.978716 0.204331 0.019091 
0.980429 0.196036 0.018117 
0.981915 0.188537 0.017246 
0.983206 0.181755 0.016468 
0.984333 0.175614 0.015773 
0.985321 0.170036 0.015151 
0.986194 0.164947 0.014595 
0.986971 0.160281 0.014095 
0.987667 0.155975 0.013644 
0.988296 0.151976 0.013238 
0.988867 0.148242 0.012871 
0.989390 0.144743 0.012539 
0.989868 0.141464 0.012244 
0.990302 0.138411 0.011984 
0.990692 0.135614 0.011764 
0.991030 0.133135 0.011591 
0.991305 0.131080 0.011472 
0.991499 0.129612 0.011421 
0.991582 0.128973 0.011450 
0.991510 0.129512 0.011570 
0.991217 0.131718 0.011784 
0.990598 0.136274 0.012069 
0.989485 0.144108 0.012340 
0.987607 0.156460 0.012368 
0.984515 0.174917 0.011607 
0.979473 0.201381 0.008822 
0.971319 0.237776 0.001417 
0.958387 0.285056 -0.015399 
0.939089 0.340315 -0.047925 
0.916192 0.389583 -0.093905 
0.676558 0.725267 0.127505 
0.714478 0.692590 0.099194 
0.756969 0.648804 0.077795 
0.794950 0.603262 0.064264 
0.826615 0.560024 0.055502 
0.852486 0.520422 0.049290 
0.873603 0.484603 0.044464 
0.890956 0.452282 0.040467 
0.905347 0.423056 0.037030 
0.917393 0.396525 0.034013 
0.927567 0.372342 0.031330 
0.936222 0.350218 0.028926 
0.943629 0.329923 0.026758 
0.949995 0.311279 0.024797 
0.955482 0.294149 0.023020 
0.960219 0.278426 0.021410 
0.964310 0.264025 0.019953 
0.967841 0.250870 0.018638 
0.970889 0.238892 0.017456 
0.973518 0.228021 0.016395 
0.975786 0.218183 0.015449 
0.977743 0.209299 0.014607 
0.979434 0.201287 0.013860 
0.980900 0.194062 0.013198 
0.982176 0.187538 0.012613 
0.983292 0.181630 0.012095 
0.984275 0.176259 0.011637 
0.985146 0.171350 0.011231 
0.985925 0.166837 0.010871 
0.986625 0.162665 0.010552 
0.987259 0.158790 0.010270 
0.987835 0.155185 0.010023 
0.988356 0.151842 0.009810 
0.988824 0.148778 0.009634 
0.989233 0.146040 0.009499 
0.989574 0.143718 0.009411 
0.989829 0.141956 0.009379 
0.989968 0.140975 0.009413 
0.989950 0.141099 0.009520 
0.989705 0.142791 0.009706 
0.989129 0.146710 0.009958 
0.988053 0.153776 0.010228 
0.986196 0.165257 0.010388 
0.983086 0.182861 0.010150 
0.977918 0.208802 0.008879 
0.969328 0.245716 0.005254 
0.955148 0.296110 -0.003326 
0.932480 0.360589 -0.021353 
0.899534 0.433479 -0.054163 
0.863425 0.494787 -0.098404 
0.654564 0.746116 0.121888 
0.692346 0.715430 0.093895 
0.735490 0.673635 0.072599 
0.774878 0.629334 0.059187 
0.808339 0.586536 0.050621 
0.836101 0.546755 0.044655 
0.859042 0.510333 0.040087 
0.878079 0.477135 0.036337 
0.893989 0.446862 0.033125 
0.907393 0.419188 0.030310 
0.918769 0.393816 0.027807 
0.928484 0.370491 0.025563 
0.936822 0.349014 0.023540 
0.944002 0.329226 0.021709 
0.950196 0.311007 0.020052 
0.955544 0.294265 0.018552 
0.960159 0.278923 0.017198 
0.964140 0.264914 0.015980 
0.967568 0.252170 0.014889 
0.970519 0.240622 0.013917 
0.973058 0.230192 0.013055 
0.975242 0.220798 0.012294 
0.977125 0.212349 0.011625 
0.978751 0.204754 0.011038 
0.980162 0.197918 0.010525 
0.981392 0.191750 0.010076 
0.982471 0.186162 0.009685 
0.983425 0.181076 0.009344 
0.984273 0.176421 0.009046 
0.985033 0.172142 0.008789 
0.985716 0.168195 0.008568 
0.986332 0.164559 0.008382 
0.986882 0.161235 0.008232 
0.987365 0.158254 0.008119 
0.987774 0.155687 0.008049 
0.988092 0.153657 0.008027 
0.988293 0.152357 0.008060 
0.988335 0.152075 0.008155 
0.988155 0.153233 0.008315 
0.987652 0.156432 0.008530 
0.986667 0.162518 0.008768 
0.984939 0.172672 0.008943 
0.982032 0.188504 0.008877 
0.977203 0.212149 0.008202 
0.969184 0.246261 0.006206 
0.955886 0.293735 0.001529 
0.934190 0.356681 -0.008279 
0.900542 0.433922 -0.027123 
0.854313 0.516379 -0.059169 
0.807487 0.581263 -0.100486 
0.635634 0.763014 0.117381 
0.673402 0.733780 0.089981 
0.717011 0.693634 0.069042 
0.757395 0.650564 0.055846 
0.792200 0.608414 0.047457 
0.821456 0.568748 0.041658 
0.845905 0.532031 0.037248 
0.866384 0.498244 0.033644 
0.883633 0.467182 0.030565 
0.898255 0.438591 0.027866 
0.910726 0.412225 0.025465 
0.921418 0.387872 0.023311 
0.930620 0.365363 0.021367 
0.938557 0.344566 0.019608 
0.945411 0.325382 0.018017 
0.951328 0.307734 0.016579 
0.956431 0.291558 0.015283 
0.960825 0.276796 0.014123 
0.964602 0.263383 0.013088 
0.967845 0.251251 0.012172 
0.970627 0.240320 0.011364 
0.973014 0.230501 0.010657 
0.975064 0.221698 0.010041 
0.976829 0.213811 0.009507 
0.978354 0.206739 0.009045 
0.979680 0.200382 0.008647 
0.980838 0.194648 0.008305 
0.981857 0.189452 0.008012 
0.982760 0.184724 0.007763 
0.983563 0.180406 0.007553 
0.984280 0.176459 0.007379 
0.984918 0.172870 0.007242 
0.985478 0.169650 0.007140 
0.985957 0.166851 0.007078 
0.986340 0.164572 0.007059 
0.986605 0.162975 0.007087 
0.986714 0.162311 0.007168 
0.986608 0.162948 0.007303 
0.986195 0.165416 0.007484 
0.985334 0.170466 0.007686 
0.983791 0.179145 0.007845 
0.981189 0.192889 0.007837 
0.976891 0.213609 0.007419 
0.969824 0.243729 0.006154 
0.958212 0.286040 0.003276 
0.939297 0.343096 -0.002529 
0.909385 0.415739 -0.013424 
0.865204 0.500360 -0.032600 
0.808331 0.585326 -0.063195 
0.754649 0.648270 -0.101248 
0.619488 0.776734 0.113657 
0.657296 0.748606 0.086894 
0.701264 0.709804 0.066383 
0.742379 0.667846 0.053435 
0.778198 0.626390 0.045209 
0.808627 0.586992 0.039537 
0.834303 0.550179 0.035237 
0.855994 0.516012 0.031729 
0.874395 0.484362 0.028734 
0.890089 0.455038 0.026108 
0.903539 0.427845 0.023769 
0.915114 0.402614 0.021668 
0.925101 0.379207 0.019770 
0.933730 0.357522 0.018053 
0.941186 0.337485 0.016499 
0.947622 0.319037 0.015097 
0.953167 0.302128 0.013838 
0.957933 0.286709 0.012714 
0.962022 0.272721 0.011717 
0.965522 0.260095 0.010839 
0.968516 0.248749 0.010071 
0.971075 0.238589 0.009404 
0.973266 0.229511 0.008829 
0.975146 0.221409 0.008335 
0.976764 0.214172 0.007914 
0.978164 0.207695 0.007556 
0.979383 0.201881 0.007254 
0.980450 0.196642 0.007001 
0.981390 0.191905 0.006791 
0.982220 0.187615 0.006620 
0.982954 0.183739 0.006486 
0.983596 0.180273 0.006389 
0.984147 0.177244 0.006329 
0.984596 0.174728 0.006307 
0.984927 0.172857 0.006329 
0.985104 0.171839 0.006395 
0.985077 0.171990 0.006507 
0.984764 0.173766 0.006658 
0.984040 0.177817 0.006827 
0.982705 0.185049 0.006967 
0.980438 0.196703 0.006983 
0.976715 0.214437 0.006701 
0.970663 0.240373 0.005822 
0.960854 0.277027 0.003859 
0.945043 0.326946 0.000040 
0.920025 0.391801 -0.006821 
0.882114 0.470672 -0.018512 
0.829174 0.557729 -0.037540 
0.765227 0.640335 -0.066327 
0.708298 0.698612 -0.101269 
0.605748 0.787942 0.110527 
0.643608 0.760691 0.084364 
0.687858 0.722994 0.064275 
0.729528 0.682004 0.051571 
0.766127 0.641216 0.043492 
0.797485 0.602146 0.037924 
0.824162 0.565350 0.033707 
0.846868 0.530941 0.030267 
0.866259 0.498848 0.027330 
0.882889 0.468930 0.024751 
0.897207 0.441039 0.022452 
0.909571 0.415048 0.020383 
0.920267 0.390853 0.018513 
0.929522 0.368384 0.016819 
0.937522 0.347589 0.015287 
0.944425 0.328433 0.013908 
0.950365 0.310880 0.012672 
0.955461 0.294892 0.011572 
0.959821 0.280414 0.010602 
0.963542 0.267378 0.009754 
0.966715 0.255698 0.009018 
0.969418 0.245274 0.008384 
0.971722 0.235996 0.007843 
0.973692 0.227749 0.007384 
0.975381 0.220415 0.006997 
0.976836 0.213884 0.006674 
0.978097 0.208053 0.006407 
0.979194 0.202831 0.006187 
0.980154 0.198148 0.006012 
0.980994 0.193950 0.005875 
0.981726 0.190215 0.005776 
0.982353 0.186947 0.005713 
0.982873 0.184197 0.005687 
0.983270 0.182066 0.005700 
0.983517 0.180723 0.005752 
0.983570 0.180431 0.005844 
0.983358 0.181578 0.005969 
0.982773 0.184713 0.006111 
0.981646 0.190608 0.006234 
0.979710 0.200321 0.006264 
0.976537 0.215263 0.006071 
0.971433 0.237253 0.005437 
0.963274 0.268492 0.004020 
0.950297 0.311341 0.001311 
0.929916 0.367755 -0.003409 
0.898829 0.438158 -0.011132 
0.853937 0.519856 -0.023256 
0.794685 0.605585 -0.041745 
0.727048 0.683148 -0.068632 
0.669504 0.735931 -0.100851 
0.594040 0.797170 0.107874 
0.631947 0.770635 0.082249 
0.676420 0.733856 0.062549 
0.718522 0.693700 0.050069 
0.755737 0.653520 0.042122 
0.787842 0.614787 0.036640 
0.815345 0.578063 0.032487 
0.838908 0.543495 0.029098 
0.859150 0.511052 0.026200 
0.876600 0.480638 0.023654 
0.891688 0.452146 0.021379 
0.904759 0.425484 0.019329 
0.916092 0.400588 0.017473 
0.925909 0.377416 0.015792 
0.934398 0.355944 0.014272 
0.941717 0.336159 0.012906 
0.948005 0.318042 0.011685 
0.953387 0.301562 0.010605 
0.957980 0.286673 0.009656 
0.961887 0.273303 0.008832 
0.965206 0.261364 0.008123 
0.968023 0.250749 0.007518 
0.970415 0.241341 0.007007 
0.972451 0.233015 0.006580 
0.974189 0.225648 0.006225 
0.975679 0.219123 0.005933 
0.976963 0.213334 0.005696 
0.978073 0.208189 0.005508 
0.979036 0.203618 0.005363 
0.979868 0.199576 0.005257 
0.980581 0.196047 0.005188 
0.981174 0.193055 0.005155 
0.981641 0.190670 0.005158 
0.981959 0.189025 0.005197 
0.982091 0.188334 0.005271 
0.981978 0.188917 0.005374 
0.981529 0.191236 0.005494 
0.980600 0.195939 0.005602 
0.978972 0.203916 0.005641 
0.976298 0.216359 0.005513 
0.972028 0.234809 0.005054 
0.965288 0.261155 0.004010 
0.954715 0.297516 0.002014 
0.938283 0.345865 -0.001423 
0.913270 0.407295 -0.006919 
0.876649 0.480890 -0.015242 
0.826302 0.562558 -0.027446 
0.763228 0.644550 -0.045138 
0.694527 0.716032 -0.070219 
0.637966 0.763522 -0.100172 
0.584033 0.804830 0.105615 
0.621976 0.778891 0.080465 
0.666625 0.742884 0.061111 
0.709073 0.703443 0.048832 
0.746785 0.663800 0.041001 
0.779506 0.625383 0.035591 
0.807703 0.588748 0.031488 
0.831998 0.554064 0.028136 
0.852982 0.521329 0.025266 
0.871155 0.490482 0.022739 
0.886929 0.461453 0.020478 
0.900634 0.434187 0.018436 
0.912539 0.408653 0.016586 
0.922862 0.384843 0.014909 
0.931786 0.362760 0.013394 
0.939472 0.342414 0.012035 
0.946063 0.323801 0.010825 
0.951691 0.306902 0.009758 
0.956478 0.291672 0.008828 
0.960536 0.278041 0.008026 
0.963969 0.265914 0.007341 
0.966871 0.255177 0.006763 
0.969325 0.245704 0.006281 
0.971403 0.237362 0.005882 
0.973170 0.230022 0.005556 
0.974676 0.223561 0.005294 
0.975965 0.217869 0.005086 
0.977071 0.212857 0.004926 
0.978020 0.208456 0.004809 
0.978828 0.204630 0.004731 
0.979503 0.201375 0.004688 
0.980043 0.198732 0.004681 
0.980432 0.196799 0.004707 
0.980644 0.195743 0.004764 
0.980627 0.195825 0.004849 
0.980305 0.197427 0.004950 
0.979560 0.201087 0.005044 
0.978211 0.207549 0.005089 
0.975978 0.217810 0.005010 
0.972426 0.233165 0.004681 
0.966874 0.255224 0.003910 
0.958274 0.285841 0.002421 
0.945063 0.326890 -0.000150 
0.925075 0.379761 -0.004240 
0.895685 0.444568 -0.010335 
0.854440 0.519203 -0.018982 
0.800334 0.598753 -0.030980 
0.735557 0.675778 -0.047753 
0.667542 0.741158 -0.071224 
0.612771 0.783990 -0.099353 
0.575450 0.811238 0.103685 
0.613416 0.785804 0.078950 
0.658208 0.750450 0.059901 
0.700938 0.711619 0.047801 
0.739064 0.672442 0.040070 
0.772305 0.634303 0.034720 
0.801096 0.597751 0.030656 
0.826029 0.562964 0.027332 
0.847667 0.529964 0.024480 
0.866485 0.498720 0.021963 
0.882875 0.469195 0.019705 
0.897152 0.441369 0.017663 
0.909572 0.415245 0.015811 
0.920348 0.390846 0.014131 
0.929658 0.368207 0.012616 
0.937665 0.347357 0.011259 
0.944516 0.328312 0.010056 
0.950348 0.311059 0.009001 
0.955291 0.295557 0.008087 
0.959465 0.281733 0.007305 
0.962982 0.269485 0.006644 
0.965941 0.258691 0.006092 
0.968432 0.249216 0.005637 
0.970531 0.240918 0.005266 
0.972305 0.233662 0.004968 
0.973809 0.227319 0.004733 
0.975086 0.221779 0.004552 
0.976172 0.216953 0.004419 
0.977091 0.212778 0.004327 
0.977858 0.209227 0.004273 
0.978477 0.206311 0.004254 
0.978942 0.204093 0.004267 
0.979232 0.202697 0.004310 
0.979307 0.202332 0.004378 
0.979105 0.203305 0.004462 
0.978528 0.206062 0.004545 
0.977428 0.211217 0.004593 
0.975579 0.219601 0.004548 
0.972636 0.232296 0.004317 
0.968068 0.250661 0.003751 
0.961068 0.276300 0.002639 
0.950435 0.310921 0.000699 
0.934479 0.356010 -0.002407 
0.911039 0.412261 -0.007036 
0.877797 0.478841 -0.013528 
0.833036 0.552771 -0.022251 
0.776754 0.628894 -0.033848 
0.711852 0.700569 -0.049688 
0.645532 0.760352 -0.071789 
0.592842 0.799275 -0.098480 
0.568057 0.816640 0.102033 
0.606039 0.791635 0.077660 
0.650947 0.756836 0.058878 
0.693916 0.718525 0.046934 
0.732397 0.679743 0.039290 
0.766088 0.641836 0.033991 
0.795401 0.605343 0.029957 
0.820902 0.570447 0.026651 
0.843125 0.537190 0.023807 
0.862526 0.505564 0.021292 
0.879476 0.475563 0.019030 
0.894272 0.447202 0.016981 
0.907158 0.420519 0.015119 
0.918337 0.395571 0.013432 
0.927988 0.372420 0.011911 
0.936271 0.351120 0.010554 
0.943339 0.331699 0.009356 
0.949335 0.314155 0.008311 
0.954398 0.298446 0.007413 
0.958655 0.284494 0.006651 
0.962224 0.272191 0.006013 
0.965214 0.261403 0.005486 
0.967718 0.251986 0.005057 
0.969817 0.243790 0.004713 
0.971580 0.236672 0.004442 
0.973063 0.230500 0.004234 
0.974313 0.225163 0.004079 
0.975362 0.220575 0.003969 
0.976235 0.216680 0.003901 
0.976944 0.213462 0.003868 
0.977489 0.210950 0.003868 
0.977859 0.209229 0.003897 
0.978024 0.208456 0.003950 
0.977934 0.208877 0.004019 
0.977509 0.210853 0.004091 
0.976629 0.214891 0.004140 
0.975112 0.221674 0.004120 
0.972683 0.232104 0.003961 
0.968927 0.247323 0.003550 
0.963220 0.268702 0.002722 
0.954640 0.297761 0.001257 
0.941877 0.335957 -0.001116 
0.923201 0.384290 -0.004685 
0.896598 0.442738 -0.009715 
0.860208 0.509679 -0.016412 
0.813060 0.581643 -0.025017 
0.755908 0.653682 -0.036104 
0.691928 0.720158 -0.051070 
0.627775 0.775054 -0.072042 
0.577163 0.810774 -0.097614 
0.561665 0.821224 0.100614 
0.599657 0.796587 0.076556 
0.644666 0.762261 0.058009 
0.687844 0.724387 0.046202 
0.726638 0.685933 0.038633 
0.760731 0.648208 0.033376 
0.790514 0.611739 0.029364 
0.816530 0.576714 0.026068 
0.839290 0.543188 0.023225 
0.859226 0.511177 0.020704 
0.876688 0.480706 0.018431 
0.891957 0.451823 0.016367 
0.905264 0.424602 0.014491 
0.916804 0.399133 0.012790 
0.926750 0.375509 0.011262 
0.935267 0.353805 0.009901 
0.942510 0.334064 0.008707 
0.948632 0.316289 0.007672 
0.953778 0.300437 0.006790 
0.958084 0.286422 0.006048 
0.961678 0.274127 0.005433 
0.964672 0.263407 0.004932 
0.967166 0.254107 0.004530 
0.969243 0.246068 0.004213 
0.970977 0.239140 0.003968 
0.972424 0.233190 0.003785 
0.973630 0.228105 0.003653 
0.974627 0.223805 0.003567 
0.975439 0.220243 0.003519 
0.976073 0.217415 0.003504 
0.976527 0.215368 0.003519 
0.976780 0.214216 0.003558 
0.976795 0.214146 0.003614 
0.976509 0.215446 0.003676 
0.975824 0.218528 0.003722 
0.974593 0.223953 0.003720 
0.972597 0.232468 0.003614 
0.969511 0.245026 0.003317 
0.964850 0.262789 0.002704 
0.957903 0.287088 0.001601 
0.947659 0.319285 -0.000210 
0.932753 0.360505 -0.002972 
0.911510 0.411220 -0.006914 
0.882180 0.470754 -0.012203 
0.843417 0.536925 -0.018941 
0.794901 0.606125 -0.027293 
0.737855 0.673899 -0.037833 
0.675407 0.735608 -0.052023 
0.613550 0.786359 -0.072086 
0.564861 0.819489 -0.096797 
0.556118 0.825139 0.099393 
0.594119 0.800816 0.075610 
0.639218 0.766890 0.057268 
0.682587 0.729381 0.045580 
0.721669 0.691191 0.038076 
0.756132 0.653594 0.032853 
0.786349 0.617108 0.028857 
0.812843 0.581921 0.025564 
0.836103 0.548102 0.022715 
0.856537 0.515691 0.020180 
0.874475 0.484741 0.017889 
0.890179 0.455337 0.015804 
0.903867 0.427588 0.013908 
0.915724 0.401622 0.012191 
0.925924 0.377559 0.010651 
0.934632 0.355496 0.009287 
0.942009 0.335489 0.008096 
0.948217 0.317543 0.007072 
0.953411 0.301611 0.006206 
0.957735 0.287599 0.005485 
0.961324 0.275375 0.004895 
0.964298 0.264784 0.004420 
0.966759 0.255657 0.004045 
0.968797 0.247829 0.003754 
0.970483 0.241142 0.003535 
0.971878 0.235462 0.003376 
0.973025 0.230678 0.003267 
0.973956 0.226714 0.003201 
0.974691 0.223534 0.003171 
0.975235 0.221151 0.003171 
0.975578 0.219631 0.003197 
0.975694 0.219114 0.003240 
0.975534 0.219823 0.003292 
0.975021 0.222086 0.003335 
0.974038 0.226361 0.003344 
0.972408 0.233262 0.003276 
0.969876 0.243579 0.003064 
0.966063 0.258292 0.002613 
0.960420 0.278550 0.001785 
0.952165 0.305586 0.000406 
0.940229 0.340539 -0.001728 
0.923255 0.384158 -0.004822 
0.899707 0.436401 -0.009036 
0.868168 0.496060 -0.014453 
0.827790 0.560640 -0.021103 
0.778744 0.626665 -0.029125 
0.722465 0.690300 -0.039130 
0.661839 0.747794 -0.052656 
0.602206 0.795087 -0.072001 
0.555225 0.826135 -0.096053 
0.551290 0.828498 0.098339 
0.589301 0.804444 0.074796 
0.634488 0.770855 0.056634 
0.678039 0.733644 0.045051 
0.717392 0.695654 0.037603 
0.752206 0.658131 0.032407 
0.782836 0.621578 0.028420 
0.809785 0.586188 0.025123 
0.833519 0.552042 0.022261 
0.854424 0.519202 0.019705 
0.872807 0.487756 0.017389 
0.888912 0.457822 0.015278 
0.902943 0.429552 0.013357 
0.915079 0.403107 0.011621 
0.925490 0.378638 0.010068 
0.934346 0.356262 0.008700 
0.941817 0.336043 0.007513 
0.948072 0.317988 0.006501 
0.953278 0.302041 0.005653 
0.957589 0.288096 0.004955 
0.961146 0.276007 0.004391 
0.964074 0.265603 0.003943 
0.966483 0.256706 0.003595 
0.968462 0.249140 0.003330 
0.970085 0.242744 0.003136 
0.971412 0.237380 0.003000 
0.972486 0.232941 0.002912 
0.973337 0.229360 0.002864 
0.973981 0.226611 0.002849 
0.974418 0.224724 0.002861 
0.974633 0.223789 0.002892 
0.974591 0.223971 0.002934 
0.974232 0.225527 0.002973 
0.973463 0.228826 0.002988 
0.972144 0.234366 0.002947 
0.970072 0.242802 0.002799 
0.966950 0.254953 0.002468 
0.962352 0.271800 0.001849 
0.955672 0.294433 0.000802 
0.946076 0.323943 -0.000841 
0.932481 0.361205 -0.003262 
0.913593 0.406577 -0.006618 
0.888078 0.459560 -0.011006 
0.854873 0.518577 -0.016442 
0.813556 0.581035 -0.022914 
0.764615 0.643762 -0.030573 
0.709504 0.703560 -0.040085 
0.650778 0.757412 -0.053059 
0.593193 0.801848 -0.071844 
0.547692 0.831224 -0.095395 
0.547078 0.831393 0.097428 
0.585104 0.807566 0.074095 
0.630381 0.774256 0.056092 
0.674111 0.737282 0.044600 
0.713731 0.699431 0.037199 
0.748888 0.661923 0.032023 
0.779920 0.625250 0.028039 
0.807311 0.589608 0.024732 
0.831503 0.555090 0.021850 
0.852859 0.521786 0.019267 
0.871662 0.489815 0.016919 
0.888138 0.459339 0.014776 
0.902477 0.430547 0.012827 
0.914851 0.403641 0.011068 
0.925430 0.378799 0.009502 
0.934391 0.356156 0.008130 
0.941914 0.335784 0.006949 
0.948178 0.317683 0.005951 
0.953361 0.301788 0.005123 
0.957627 0.287975 0.004450 
0.961126 0.276084 0.003913 
0.963987 0.265927 0.003494 
0.966322 0.257315 0.003173 
0.968226 0.250061 0.002936 
0.969771 0.244001 0.002766 
0.971017 0.238997 0.002651 
0.972005 0.234948 0.002583 
0.972762 0.231793 0.002551 
0.973300 0.229521 0.002548 
0.973616 0.228180 0.002567 
0.973686 0.227881 0.002599 
0.973465 0.228819 0.002633 
0.972883 0.231283 0.002651 
0.971828 0.235676 0.002629 
0.970140 0.242534 0.002526 
0.967584 0.252537 0.002285 
0.963829 0.266516 0.001824 
0.958402 0.285420 0.001032 
0.950655 0.310250 -0.000229 
0.939729 0.341914 -0.002115 
0.924563 0.381000 -0.004776 
0.903977 0.427500 -0.008323 
0.876873 0.480552 -0.012797 
0.842519 0.538360 -0.018166 
0.800821 0.598406 -0.024407 
0.752430 0.657909 -0.031701 
0.698695 0.714257 -0.040778 
0.641816 0.765004 -0.053303 
0.586060 0.807093 -0.071655 
0.541822 0.835127 -0.094826 
0.543398 0.833894 0.096639 
0.581446 0.810259 0.073492 
0.626821 0.777175 0.055626 
0.670736 0.740377 0.044215 
0.710626 0.702604 0.036853 
0.746126 0.665050 0.031691 
0.777559 0.628199 0.027703 
0.805388 0.592247 0.024379 
0.830030 0.557306 0.021470 
0.851822 0.523492 0.018853 
0.871024 0.490964 0.016467 
0.887843 0.459925 0.014288 
0.902453 0.430612 0.012306 
0.915024 0.403263 0.010524 
0.925728 0.378084 0.008945 
0.934750 0.355225 0.007570 
0.942282 0.334760 0.006398 
0.948517 0.316681 0.005416 
0.953643 0.300906 0.004612 
0.957834 0.287294 0.003967 
0.961248 0.275663 0.003459 
0.964020 0.265812 0.003069 
0.966265 0.257536 0.002777 
0.968076 0.250642 0.002565 
0.969529 0.244963 0.002419 
0.970681 0.240362 0.002325 
0.971570 0.236742 0.002274 
0.972221 0.234055 0.002255 
0.972641 0.232303 0.002261 
0.972820 0.231551 0.002283 
0.972728 0.231937 0.002311 
0.972311 0.233681 0.002330 
0.971482 0.237102 0.002320 
0.970115 0.242634 0.002251 
0.968027 0.250839 0.002077 
0.964954 0.262412 0.001735 
0.960531 0.278171 0.001137 
0.954250 0.299010 0.000172 
0.945435 0.325808 -0.001292 
0.933228 0.359268 -0.003391 
0.916628 0.399694 -0.006241 
0.894601 0.446757 -0.009911 
0.866289 0.499335 -0.014395 
0.831247 0.555556 -0.019638 
0.789601 0.613086 -0.025622 
0.742045 0.669558 -0.032571 
0.689755 0.722866 -0.041273 
0.634598 0.770993 -0.053439 
0.580446 0.811157 -0.071461 
0.537275 0.838114 -0.094348 
0.540185 0.836058 0.095958 
0.578264 0.812580 0.072972 
0.623748 0.779672 0.055228 
0.667859 0.742992 0.043886 
0.708029 0.705236 0.036556 
0.743882 0.667573 0.031401 
0.775723 0.630478 0.027404 
0.803993 0.594152 0.024055 
0.829082 0.558728 0.021111 
0.851301 0.524353 0.018452 
0.870884 0.491228 0.016023 
0.888015 0.459607 0.013802 
0.902860 0.429772 0.011786 
0.915585 0.402000 0.009979 
0.926368 0.376525 0.008388 
0.935406 0.353507 0.007015 
0.942903 0.333015 0.005854 
0.949069 0.315029 0.004893 
0.954104 0.299446 0.004116 
0.958193 0.286103 0.003500 
0.961498 0.274796 0.003024 
0.964160 0.265307 0.002665 
0.966297 0.257419 0.002401 
0.968002 0.250932 0.002215 
0.969350 0.245675 0.002092 
0.970395 0.241514 0.002017 
0.971174 0.238362 0.001981 
0.971707 0.236180 0.001973 
0.971997 0.234986 0.001984 
0.972026 0.234865 0.002005 
0.971757 0.235976 0.002023 
0.971124 0.238567 0.002021 
0.970029 0.242982 0.001976 
0.968326 0.249681 0.001852 
0.965812 0.259240 0.001598 
0.962196 0.272355 0.001148 
0.957084 0.289810 0.000412 
0.949943 0.312422 -0.000720 
0.940088 0.340925 -0.002367 
0.926686 0.375808 -0.004644 
0.908822 0.417114 -0.007633 
0.885629 0.464255 -0.011364 
0.856471 0.515953 -0.015801 
0.821125 0.570367 -0.020878 
0.779844 0.625409 -0.026600 
0.733284 0.679109 -0.033237 
0.682421 0.729774 -0.041624 
0.628826 0.775703 -0.053507 
0.576061 0.814293 -0.071281 
0.533788 0.840382 -0.093956 
0.537384 0.837928 0.095369 
0.575506 0.814575 0.072525 
0.621115 0.781795 0.054888 
0.665440 0.745177 0.043605 
0.705907 0.707374 0.036300 
0.742129 0.669533 0.031146 
0.774394 0.632122 0.027131 
0.803114 0.595351 0.023751 
0.828654 0.559376 0.020765 
0.851292 0.524382 0.018057 
0.871235 0.490619 0.015577 
0.888649 0.458394 0.013310 
0.903689 0.428041 0.011257 
0.916522 0.399874 0.009427 
0.927335 0.374150 0.007827 
0.936340 0.351035 0.006458 
0.943759 0.330590 0.005314 
0.949818 0.312773 0.004378 
0.954728 0.297457 0.003631 
0.958686 0.284451 0.003049 
0.961860 0.273531 0.002606 
0.964394 0.264460 0.002278 
0.966407 0.257008 0.002043 
0.967993 0.250970 0.001883 
0.969224 0.246173 0.001781 
0.970152 0.242490 0.001724 
0.970811 0.239840 0.001700 
0.971216 0.238196 0.001700 
0.971363 0.237594 0.001713 
0.971230 0.238138 0.001728 
0.970769 0.240010 0.001732 
0.969905 0.243478 0.001703 
0.968525 0.248911 0.001615 
0.966467 0.256785 0.001429 
0.963507 0.267682 0.001091 
0.959331 0.282282 0.000530 
0.953523 0.301319 -0.000343 
0.945537 0.325510 -0.001630 
0.934694 0.355436 -0.003437 
0.920212 0.391377 -0.005855 
0.901279 0.433147 -0.008935 
0.877192 0.479973 -0.012675 
0.847509 0.530509 -0.017022 
0.812162 0.583020 -0.021914 
0.771459 0.635690 -0.027384 
0.725965 0.686903 -0.033744 
0.676456 0.735292 -0.041873 
0.624254 0.779385 -0.053535 
0.572681 0.816687 -0.071124 
0.531160 0.842080 -0.093644 
0.534952 0.839540 0.094863 
0.573132 0.816281 0.072143 
0.618886 0.783581 0.054598 
0.663447 0.746965 0.043365 
0.704237 0.709048 0.036078 
0.740853 0.670955 0.030918 
0.773562 0.633150 0.026878 
0.802749 0.595855 0.023459 
0.828745 0.559254 0.020421 
0.851795 0.523578 0.017656 
0.872078 0.489133 0.015120 
0.889741 0.456286 0.012804 
0.904931 0.425423 0.010714 
0.917821 0.396896 0.008862 
0.928612 0.370980 0.007257 
0.937535 0.347841 0.005897 
0.944831 0.327522 0.004774 
0.950743 0.309955 0.003869 
0.955498 0.294982 0.003156 
0.959298 0.282384 0.002610 
0.962319 0.271913 0.002202 
0.964709 0.263312 0.001907 
0.966584 0.256343 0.001701 
0.968039 0.250793 0.001566 
0.969143 0.246493 0.001484 
0.969945 0.243319 0.001442 
0.970474 0.241201 0.001429 
0.970741 0.240125 0.001433 
0.970736 0.240145 0.001444 
0.970429 0.241382 0.001450 
0.969764 0.244039 0.001433 
0.968655 0.248405 0.001372 
0.966976 0.254866 0.001237 
0.964548 0.263906 0.000984 
0.961128 0.276103 0.000557 
0.956386 0.292105 -0.000115 
0.949890 0.312581 -0.001118 
0.941093 0.338139 -0.002545 
0.929339 0.369200 -0.004486 
0.913910 0.405856 -0.007007 
0.894109 0.447734 -0.010134 
0.869384 0.493943 -0.013844 
0.839447 0.543141 -0.018073 
0.804330 0.593747 -0.022774 
0.764334 0.644212 -0.028010 
0.719914 0.693223 -0.034132 
0.671657 0.739668 -0.042049 
0.620683 0.782231 -0.053543 
0.570127 0.818483 -0.070997 
0.529237 0.843317 -0.093409 
0.532859 0.840919 0.094431 
0.571113 0.817724 0.071818 
0.617036 0.785056 0.054353 
0.661863 0.748381 0.043161 
0.703007 0.710277 0.035885 
0.740048 0.671852 0.030711 
0.773229 0.633567 0.026638 
0.802903 0.595660 0.023168 
0.829362 0.558351 0.020070 
0.852816 0.521926 0.017241 
0.873415 0.486757 0.014643 
0.891287 0.453274 0.012275 
0.906578 0.421917 0.010149 
0.919469 0.393076 0.008279 
0.930182 0.367037 0.006673 
0.938971 0.343955 0.005330 
0.946099 0.323850 0.004234 
0.951827 0.306618 0.003364 
0.956394 0.292067 0.002691 
0.960013 0.279948 0.002184 
0.962863 0.269984 0.001813 
0.965092 0.261905 0.001551 
0.966819 0.255460 0.001374 
0.968133 0.250435 0.001262 
0.969101 0.246663 0.001198 
0.969768 0.244026 0.001170 
0.970159 0.242465 0.001164 
0.970280 0.241983 0.001170 
0.970114 0.242647 0.001175 
0.969624 0.244599 0.001167 
0.968744 0.248058 0.001126 
0.967379 0.253332 0.001028 
0.965388 0.260815 0.000839 
0.962581 0.270995 0.000516 
0.958696 0.284432 -0.000000 
0.953393 0.301732 -0.000780 
0.946230 0.323488 -0.001903 
0.936673 0.350189 -0.003452 
0.924102 0.382107 -0.005499 
0.907873 0.419168 -0.008090 
0.887401 0.460861 -0.011228 
0.862267 0.506236 -0.014876 
0.832295 0.554008 -0.018972 
0.797569 0.602770 -0.023485 
0.758350 0.651224 -0.028510 
0.714970 0.698306 -0.034430 
0.667852 0.743098 -0.042179 