# OOMMF: rectangular mesh v0.99 
# Segment count: 1 
# Begin: Segment 
# Begin: Header 
# Title: model.omf 
# Desc: 
# meshunit: unknown 
# xbase: 0 
# ybase: 0 
# zbase: 0 
# xstepsize: 1
# ystepsize: 1 
# zstepsize: 1 
# xnodes: 50 
# ynodes: 50 
# znodes: 4 
# xmin: -0.5 
# ymin: -0.5 
# zmin: -0.5 
# xmax: 49.500000 
# ymax: 49.500000 
# zmax: 3.500000 
# valueunit: Ms 
# valuemultiplier: 1 
# ValueRangeMaxMag:  1. 
# ValueRangeMinMag:  1e-8 
# End: Header 
# Begin: data text 
0.753295 0.639080 0.155320 
0.790474 0.597098 0.136474 
0.826697 0.549803 0.119532 
0.856796 0.504595 0.106232 
0.880790 0.463733 0.095714 
0.899776 0.427573 0.087091 
0.914883 0.395755 0.079792 
0.927036 0.367704 0.073477 
0.936933 0.342842 0.067933 
0.945097 0.320657 0.063018 
0.951909 0.300720 0.058625 
0.957652 0.282689 0.054672 
0.962537 0.266293 0.051095 
0.966720 0.251323 0.047845 
0.970320 0.237621 0.044885 
0.973431 0.225063 0.042184 
0.976123 0.213556 0.039719 
0.978457 0.203022 0.037471 
0.980481 0.193395 0.035425 
0.982237 0.184616 0.033566 
0.983762 0.176626 0.031881 
0.985086 0.169366 0.030356 
0.986238 0.162774 0.028979 
0.987243 0.156790 0.027735 
0.988122 0.151350 0.026611 
0.988896 0.146391 0.025595 
0.989580 0.141855 0.024673 
0.990189 0.137684 0.023834 
0.990737 0.133825 0.023067 
0.991231 0.130232 0.022364 
0.991682 0.126866 0.021715 
0.992095 0.123697 0.021117 
0.992475 0.120706 0.020565 
0.992824 0.117887 0.020059 
0.993143 0.115250 0.019602 
0.993429 0.112828 0.019200 
0.993677 0.110678 0.018866 
0.993879 0.108895 0.018614 
0.994021 0.107618 0.018464 
0.994083 0.107049 0.018442 
0.994036 0.107460 0.018566 
0.993839 0.109219 0.018843 
0.993433 0.112790 0.019227 
0.992736 0.118716 0.019553 
0.991645 0.127535 0.019366 
0.990059 0.139549 0.017579 
0.987953 0.154301 0.011858 
0.985504 0.169641 -0.002153 
0.983080 0.180643 -0.030348 
0.980798 0.181381 -0.071667 
0.728439 0.669709 0.144451 
0.766900 0.630566 0.119378 
0.806313 0.582955 0.100115 
0.839401 0.536522 0.086891 
0.865872 0.494247 0.077367 
0.886890 0.456650 0.069975 
0.903684 0.423407 0.063890 
0.917252 0.393959 0.058691 
0.928353 0.367734 0.054152 
0.937546 0.344229 0.050134 
0.945246 0.323021 0.046545 
0.951759 0.303773 0.043314 
0.957313 0.286217 0.040390 
0.962079 0.270149 0.037732 
0.966187 0.255412 0.035311 
0.969740 0.241887 0.033102 
0.972816 0.229483 0.031088 
0.975483 0.218123 0.029253 
0.977795 0.207742 0.027585 
0.979799 0.198279 0.026073 
0.981536 0.189674 0.024706 
0.983044 0.181863 0.023472 
0.984353 0.174781 0.022362 
0.985494 0.168361 0.021364 
0.986491 0.162534 0.020466 
0.987366 0.157233 0.019657 
0.988139 0.152392 0.018928 
0.988827 0.147947 0.018268 
0.989443 0.143844 0.017669 
0.989999 0.140031 0.017123 
0.990505 0.136468 0.016624 
0.990968 0.133123 0.016168 
0.991391 0.129980 0.015753 
0.991779 0.127036 0.015379 
0.992130 0.124308 0.015049 
0.992440 0.121840 0.014770 
0.992702 0.119710 0.014552 
0.992905 0.118037 0.014408 
0.993028 0.117001 0.014356 
0.993044 0.116859 0.014414 
0.992910 0.117971 0.014595 
0.992562 0.120826 0.014894 
0.991904 0.126073 0.015253 
0.990788 0.134536 0.015489 
0.988993 0.147187 0.015123 
0.986203 0.165027 0.013023 
0.982002 0.188750 0.006734 
0.975899 0.218059 -0.008435 
0.967352 0.250409 -0.039054 
0.956725 0.278572 -0.084117 
0.701593 0.699676 0.134984 
0.739799 0.664232 0.107208 
0.781176 0.618314 0.086328 
0.817062 0.571925 0.072882 
0.846312 0.528844 0.063877 
0.869818 0.490036 0.057275 
0.888770 0.455391 0.052021 
0.904198 0.424453 0.047609 
0.916899 0.396710 0.043787 
0.927476 0.371693 0.040413 
0.936375 0.349002 0.037400 
0.943931 0.328315 0.034688 
0.950394 0.309376 0.032232 
0.955951 0.291989 0.029999 
0.960749 0.276007 0.027963 
0.964900 0.261317 0.026108 
0.968496 0.247831 0.024418 
0.971610 0.235478 0.022881 
0.974307 0.224195 0.021488 
0.976642 0.213918 0.020231 
0.978662 0.204586 0.019099 
0.980411 0.196129 0.018083 
0.981927 0.188479 0.017174 
0.983244 0.181559 0.016362 
0.984392 0.175295 0.015638 
0.985397 0.169610 0.014992 
0.986283 0.164433 0.014414 
0.987069 0.159694 0.013896 
0.987771 0.155332 0.013432 
0.988403 0.151293 0.013014 
0.988976 0.147534 0.012638 
0.989497 0.144026 0.012300 
0.989972 0.140753 0.012001 
0.990401 0.137722 0.011740 
0.990784 0.134963 0.011522 
0.991113 0.132540 0.011354 
0.991377 0.130558 0.011244 
0.991557 0.129183 0.011206 
0.991625 0.128658 0.011254 
0.991536 0.129331 0.011400 
0.991222 0.131696 0.011648 
0.990577 0.136436 0.011976 
0.989430 0.144486 0.012301 
0.987505 0.157096 0.012397 
0.984344 0.175869 0.011723 
0.979194 0.202725 0.009054 
0.970868 0.239607 0.001808 
0.957675 0.287473 -0.014788 
0.938025 0.343364 -0.047021 
0.914793 0.393144 -0.092693 
0.676613 0.725175 0.127737 
0.714497 0.692540 0.099414 
0.756928 0.648825 0.078015 
0.794837 0.603386 0.064499 
0.826424 0.560279 0.055764 
0.852218 0.520832 0.049585 
0.873263 0.485185 0.044793 
0.890555 0.453039 0.040825 
0.904899 0.423979 0.037410 
0.916916 0.397594 0.034402 
0.927078 0.373524 0.031718 
0.935739 0.351473 0.029300 
0.943169 0.331207 0.027109 
0.949571 0.312544 0.025116 
0.955105 0.295350 0.023300 
0.959895 0.279524 0.021645 
0.964042 0.264984 0.020140 
0.967632 0.251667 0.018775 
0.970735 0.239510 0.017543 
0.973417 0.228452 0.016435 
0.975731 0.218427 0.015444 
0.977730 0.209363 0.014561 
0.979457 0.201183 0.013777 
0.980953 0.193805 0.013084 
0.982253 0.187147 0.012471 
0.983388 0.181123 0.011929 
0.984385 0.175656 0.011451 
0.985267 0.170669 0.011029 
0.986052 0.166096 0.010656 
0.986756 0.161882 0.010326 
0.987391 0.157983 0.010035 
0.987964 0.154371 0.009782 
0.988482 0.151039 0.009567 
0.988942 0.148003 0.009390 
0.989343 0.145312 0.009257 
0.989672 0.143056 0.009174 
0.989913 0.141383 0.009151 
0.990036 0.140512 0.009198 
0.989998 0.140770 0.009326 
0.989731 0.142621 0.009539 
0.989128 0.146727 0.009825 
0.988017 0.154010 0.010138 
0.986115 0.165742 0.010353 
0.982940 0.183643 0.010181 
0.977674 0.209934 0.008994 
0.968933 0.247261 0.005478 
0.954521 0.298128 -0.002954 
0.931516 0.363107 -0.020773 
0.898150 0.436447 -0.053301 
0.861682 0.498046 -0.097237 
0.654591 0.746052 0.122136 
0.692331 0.715415 0.094130 
0.735407 0.673701 0.072833 
0.774713 0.629514 0.059434 
0.808087 0.586860 0.050894 
0.835763 0.547247 0.044961 
0.858625 0.511008 0.040426 
0.877595 0.477996 0.036703 
0.893456 0.447899 0.033512 
0.906830 0.420377 0.030706 
0.918196 0.395122 0.028201 
0.927922 0.371871 0.025942 
0.936289 0.350417 0.023893 
0.943514 0.330601 0.022028 
0.949764 0.312305 0.020328 
0.955176 0.295442 0.018781 
0.959859 0.279943 0.017377 
0.963907 0.265750 0.016107 
0.967401 0.252806 0.014966 
0.970413 0.241049 0.013945 
0.973005 0.230413 0.013038 
0.975238 0.220821 0.012236 
0.977161 0.212189 0.011530 
0.978821 0.204428 0.010911 
0.980259 0.197446 0.010371 
0.981510 0.191154 0.009899 
0.982605 0.185464 0.009489 
0.983570 0.180296 0.009131 
0.984426 0.175579 0.008822 
0.985189 0.171258 0.008554 
0.985873 0.167288 0.008325 
0.986485 0.163648 0.008134 
0.987030 0.160340 0.007981 
0.987504 0.157395 0.007868 
0.987902 0.154885 0.007800 
0.988206 0.152934 0.007783 
0.988390 0.151738 0.007826 
0.988412 0.151587 0.007937 
0.988208 0.152902 0.008118 
0.987676 0.156288 0.008362 
0.986656 0.162592 0.008637 
0.984882 0.172997 0.008859 
0.981914 0.189120 0.008849 
0.976997 0.213096 0.008243 
0.968846 0.247584 0.006330 
0.955350 0.295471 0.001760 
0.933367 0.358837 -0.007906 
0.899339 0.436445 -0.026550 
0.852696 0.519141 -0.058326 
0.805567 0.584116 -0.099354 
0.635623 0.762983 0.117646 
0.673342 0.733804 0.090234 
0.716875 0.693749 0.069293 
0.757169 0.650805 0.056110 
0.791879 0.608809 0.047745 
0.821042 0.569323 0.041978 
0.845406 0.532800 0.037601 
0.865814 0.499208 0.034024 
0.883011 0.468330 0.030964 
0.897604 0.439896 0.028273 
0.910069 0.413649 0.025869 
0.920778 0.389367 0.023698 
0.930017 0.366875 0.021727 
0.938008 0.346039 0.019931 
0.944929 0.326764 0.018294 
0.950921 0.308977 0.016806 
0.956102 0.292625 0.015458 
0.960575 0.277657 0.014243 
0.964427 0.264023 0.013155 
0.967738 0.251663 0.012188 
0.970581 0.240507 0.011334 
0.973021 0.230474 0.010585 
0.975116 0.221473 0.009932 
0.976918 0.213409 0.009366 
0.978474 0.206181 0.008877 
0.979822 0.199693 0.008456 
0.980997 0.193851 0.008095 
0.982029 0.188571 0.007787 
0.982939 0.183780 0.007525 
0.983745 0.179421 0.007306 
0.984462 0.175454 0.007125 
0.985096 0.171865 0.006983 
0.985649 0.168668 0.006879 
0.986117 0.165914 0.006817 
0.986486 0.163703 0.006800 
0.986734 0.162201 0.006835 
0.986822 0.161659 0.006927 
0.986692 0.162447 0.007079 
0.986250 0.165098 0.007284 
0.985352 0.170365 0.007517 
0.983765 0.179295 0.007719 
0.981104 0.193327 0.007761 
0.976724 0.214372 0.007403 
0.969540 0.244853 0.006211 
0.957759 0.287551 0.003419 
0.938603 0.344992 -0.002279 
0.908368 0.417968 -0.013034 
0.863810 0.502799 -0.032017 
0.806589 0.587814 -0.062358 
0.752696 0.650707 -0.100145 
0.619431 0.776738 0.113940 
0.657185 0.748673 0.087165 
0.701069 0.709972 0.066652 
0.742086 0.668149 0.053716 
0.777802 0.626859 0.045514 
0.808132 0.587651 0.039874 
0.833719 0.551040 0.035606 
0.855336 0.517077 0.032126 
0.873686 0.485616 0.029149 
0.889352 0.456453 0.026529 
0.902801 0.429379 0.024185 
0.914398 0.404214 0.022066 
0.924431 0.380816 0.020138 
0.933125 0.359082 0.018381 
0.940659 0.338937 0.016779 
0.947181 0.320332 0.015323 
0.952815 0.303227 0.014008 
0.957670 0.287582 0.012826 
0.961842 0.273352 0.011773 
0.965419 0.260479 0.010843 
0.968480 0.248891 0.010027 
0.971098 0.238501 0.009317 
0.973337 0.229213 0.008705 
0.975257 0.220923 0.008179 
0.976907 0.213524 0.007731 
0.978332 0.206911 0.007351 
0.979569 0.200986 0.007030 
0.980648 0.195661 0.006762 
0.981595 0.190861 0.006540 
0.982428 0.186532 0.006360 
0.983160 0.182640 0.006220 
0.983797 0.179179 0.006118 
0.984339 0.176181 0.006055 
0.984777 0.173720 0.006034 
0.985091 0.171930 0.006059 
0.985248 0.171023 0.006133 
0.985196 0.171316 0.006258 
0.984854 0.173268 0.006428 
0.984093 0.177529 0.006625 
0.982713 0.185008 0.006801 
0.980390 0.196948 0.006862 
0.976590 0.215005 0.006636 
0.970434 0.241297 0.005824 
0.960478 0.278330 0.003937 
0.944460 0.328626 0.000209 
0.919167 0.393813 -0.006543 
0.880926 0.472907 -0.018094 
0.827653 0.560024 -0.036937 
0.763452 0.642536 -0.065487 
0.706406 0.700680 -0.100189 
0.605640 0.787984 0.110826 
0.643440 0.760802 0.084652 
0.687600 0.723214 0.064562 
0.729164 0.682370 0.051870 
0.765655 0.641757 0.043815 
0.796908 0.602886 0.038278 
0.823493 0.566301 0.034092 
0.846124 0.532102 0.030680 
0.865464 0.500202 0.027760 
0.882069 0.470446 0.025187 
0.896391 0.442673 0.022881 
0.908786 0.416743 0.020792 
0.919537 0.392549 0.018888 
0.928867 0.370016 0.017151 
0.936957 0.349098 0.015568 
0.943957 0.329767 0.014131 
0.949996 0.311997 0.012835 
0.955190 0.295763 0.011676 
0.959642 0.281024 0.010648 
0.963447 0.267722 0.009745 
0.966692 0.255784 0.008959 
0.969458 0.245118 0.008282 
0.971815 0.235619 0.007703 
0.973827 0.227176 0.007212 
0.975550 0.219674 0.006799 
0.977030 0.213003 0.006454 
0.978309 0.207058 0.006168 
0.979419 0.201751 0.005935 
0.980385 0.197007 0.005747 
0.981227 0.192773 0.005602 
0.981957 0.189026 0.005497 
0.982578 0.185772 0.005430 
0.983087 0.183061 0.005402 
0.983469 0.180996 0.005416 
0.983697 0.179749 0.005473 
0.983726 0.179586 0.005573 
0.983486 0.180896 0.005714 
0.982865 0.184232 0.005878 
0.981694 0.190367 0.006031 
0.979703 0.200359 0.006102 
0.976459 0.215621 0.005960 
0.971259 0.237966 0.005388 
0.962969 0.269583 0.004042 
0.949813 0.312815 0.001416 
0.929195 0.369577 -0.003208 
0.897816 0.440237 -0.010819 
0.852614 0.522044 -0.022804 
0.793097 0.607706 -0.041116 
0.725304 0.685083 -0.067787 
0.667717 0.737696 -0.099791 
0.593876 0.797249 0.108187 
0.631718 0.770790 0.082553 
0.676095 0.734129 0.062851 
0.718086 0.694128 0.050384 
0.755187 0.654132 0.042462 
0.787184 0.615606 0.037011 
0.814593 0.579100 0.032889 
0.838080 0.544748 0.029527 
0.858273 0.512501 0.026646 
0.875702 0.482249 0.024104 
0.890800 0.453871 0.021821 
0.903911 0.427265 0.019748 
0.915308 0.402358 0.017856 
0.925212 0.379109 0.016128 
0.933801 0.357497 0.014554 
0.941228 0.337517 0.013126 
0.947626 0.319163 0.011843 
0.953115 0.302418 0.010699 
0.957807 0.287248 0.009690 
0.961804 0.273597 0.008810 
0.965201 0.261385 0.008050 
0.968084 0.250516 0.007401 
0.970531 0.240878 0.006852 
0.972611 0.232350 0.006392 
0.974384 0.224811 0.006011 
0.975900 0.218144 0.005698 
0.977202 0.212242 0.005444 
0.978324 0.207012 0.005242 
0.979293 0.202383 0.005086 
0.980127 0.198310 0.004972 
0.980836 0.194776 0.004897 
0.981421 0.191805 0.004861 
0.981875 0.189469 0.004863 
0.982175 0.187904 0.004903 
0.982285 0.187325 0.004983 
0.982145 0.188056 0.005097 
0.981661 0.190561 0.005234 
0.980691 0.195492 0.005367 
0.979010 0.203739 0.005441 
0.976269 0.216494 0.005359 
0.971912 0.235294 0.004957 
0.965054 0.262021 0.003980 
0.954322 0.298773 0.002063 
0.937682 0.347493 -0.001285 
0.912409 0.409224 -0.006681 
0.875499 0.482991 -0.014890 
0.824883 0.564661 -0.026957 
0.761621 0.646495 -0.044483 
0.692847 0.717740 -0.069368 
0.636297 0.765049 -0.099129 
0.583813 0.804947 0.105940 
0.621686 0.779090 0.080782 
0.666233 0.743209 0.061428 
0.708565 0.703931 0.049162 
0.746160 0.664481 0.041355 
0.778769 0.626278 0.035977 
0.806869 0.589868 0.031905 
0.831090 0.555402 0.028580 
0.852027 0.522866 0.025727 
0.870184 0.492180 0.023203 
0.885975 0.463261 0.020931 
0.899728 0.436042 0.018865 
0.911709 0.410486 0.016975 
0.922128 0.386584 0.015248 
0.931164 0.364344 0.013675 
0.938969 0.343783 0.012251 
0.945680 0.324914 0.010974 
0.951423 0.307730 0.009842 
0.956316 0.292202 0.008849 
0.960469 0.278274 0.007989 
0.963984 0.265862 0.007253 
0.966955 0.254861 0.006631 
0.969466 0.245151 0.006110 
0.971590 0.236603 0.005680 
0.973391 0.229088 0.005328 
0.974923 0.222484 0.005045 
0.976231 0.216680 0.004821 
0.977348 0.211586 0.004648 
0.978303 0.207132 0.004520 
0.979111 0.203280 0.004434 
0.979781 0.200027 0.004387 
0.980310 0.197415 0.004376 
0.980685 0.195543 0.004402 
0.980876 0.194581 0.004463 
0.980834 0.194793 0.004555 
0.980480 0.196563 0.004668 
0.979695 0.200435 0.004783 
0.978297 0.207152 0.004857 
0.976001 0.217713 0.004817 
0.972367 0.233412 0.004539 
0.966709 0.255849 0.003831 
0.957968 0.286865 0.002417 
0.944572 0.328305 -0.000070 
0.924352 0.381520 -0.004066 
0.894693 0.446568 -0.010057 
0.853177 0.521290 -0.018588 
0.798854 0.600753 -0.030454 
0.733961 0.677558 -0.047074 
0.665938 0.742681 -0.070369 
0.611212 0.785336 -0.098325 
0.575171 0.811393 0.104019 
0.613064 0.786046 0.079279 
0.657748 0.750826 0.060231 
0.700358 0.712166 0.048144 
0.738363 0.673190 0.040438 
0.771491 0.635271 0.035120 
0.800185 0.598948 0.031088 
0.825045 0.564383 0.027789 
0.846639 0.531583 0.024953 
0.865447 0.500498 0.022439 
0.881861 0.471078 0.020169 
0.896196 0.443289 0.018100 
0.908702 0.417130 0.016205 
0.919585 0.392623 0.014472 
0.929019 0.369808 0.012894 
0.937155 0.348725 0.011470 
0.944134 0.329403 0.010197 
0.950089 0.311847 0.009074 
0.955144 0.296030 0.008095 
0.959418 0.281895 0.007254 
0.963020 0.269351 0.006541 
0.966050 0.258286 0.005944 
0.968599 0.248568 0.005451 
0.970745 0.240062 0.005049 
0.972554 0.232630 0.004726 
0.974083 0.226145 0.004471 
0.975378 0.220496 0.004275 
0.976475 0.215592 0.004129 
0.977398 0.211369 0.004028 
0.978164 0.207799 0.003967 
0.978776 0.204893 0.003943 
0.979229 0.202717 0.003954 
0.979502 0.201396 0.003998 
0.979554 0.201140 0.004070 
0.979323 0.202262 0.004164 
0.978709 0.205210 0.004262 
0.977562 0.210603 0.004333 
0.975655 0.219270 0.004322 
0.972636 0.232296 0.004135 
0.967972 0.251032 0.003626 
0.960846 0.277072 0.002583 
0.950049 0.312101 0.000724 
0.933884 0.357570 -0.002292 
0.910194 0.414125 -0.006822 
0.876687 0.480880 -0.013208 
0.831686 0.554817 -0.021817 
0.775242 0.630787 -0.033289 
0.710286 0.702207 -0.048989 
0.644003 0.761728 -0.070932 
0.591378 0.800482 -0.097467 
0.567720 0.816831 0.102374 
0.605625 0.791919 0.077997 
0.650422 0.757261 0.059218 
0.693267 0.719128 0.047289 
0.731624 0.680554 0.039670 
0.765200 0.642873 0.034403 
0.794416 0.606613 0.030402 
0.819845 0.571942 0.027121 
0.842030 0.538884 0.024293 
0.861427 0.507414 0.021779 
0.878409 0.477512 0.019504 
0.893272 0.449179 0.017424 
0.906255 0.422447 0.015517 
0.917554 0.397373 0.013773 
0.927338 0.374027 0.012186 
0.935760 0.352473 0.010757 
0.942965 0.332756 0.009486 
0.949091 0.314891 0.008371 
0.954271 0.298852 0.007406 
0.958630 0.284578 0.006584 
0.962288 0.271969 0.005894 
0.965350 0.260904 0.005323 
0.967912 0.251241 0.004857 
0.970057 0.242835 0.004483 
0.971855 0.235543 0.004188 
0.973364 0.229232 0.003960 
0.974630 0.223789 0.003790 
0.975689 0.219128 0.003670 
0.976565 0.215192 0.003593 
0.977271 0.211963 0.003554 
0.977808 0.209471 0.003550 
0.978164 0.207804 0.003578 
0.978309 0.207119 0.003633 
0.978192 0.207668 0.003708 
0.977734 0.209814 0.003791 
0.976812 0.214066 0.003858 
0.975241 0.221113 0.003866 
0.972743 0.231855 0.003744 
0.968899 0.247433 0.003383 
0.963079 0.269208 0.002618 
0.954351 0.298683 0.001228 
0.941401 0.337288 -0.001057 
0.922497 0.385979 -0.004531 
0.895638 0.444683 -0.009458 
0.858996 0.511731 -0.016049 
0.811645 0.583635 -0.024544 
0.754383 0.655473 -0.035516 
0.690398 0.721675 -0.050356 
0.626313 0.776315 -0.071186 
0.575777 0.811878 -0.096617 
0.561271 0.821451 0.100960 
0.599183 0.796911 0.076901 
0.644076 0.762732 0.058358 
0.687127 0.725044 0.046566 
0.725795 0.686804 0.039024 
0.759772 0.649310 0.033799 
0.789459 0.613078 0.029821 
0.815406 0.578280 0.026550 
0.838132 0.544952 0.023723 
0.858071 0.513094 0.021202 
0.875574 0.482713 0.018913 
0.890922 0.453846 0.016816 
0.904336 0.426561 0.014891 
0.916006 0.400949 0.013130 
0.926097 0.377109 0.011531 
0.934762 0.355132 0.010096 
0.942150 0.335076 0.008826 
0.948407 0.316963 0.007718 
0.953674 0.300767 0.006768 
0.958086 0.286419 0.005966 
0.961769 0.273812 0.005299 
0.964836 0.262810 0.004754 
0.967388 0.253263 0.004316 
0.969511 0.245015 0.003969 
0.971279 0.237915 0.003702 
0.972750 0.231830 0.003500 
0.973972 0.226645 0.003356 
0.974978 0.222279 0.003259 
0.975791 0.218682 0.003203 
0.976421 0.215852 0.003183 
0.976864 0.213838 0.003195 
0.977101 0.212752 0.003234 
0.977093 0.212786 0.003294 
0.976777 0.214232 0.003363 
0.976053 0.217505 0.003424 
0.974773 0.223170 0.003443 
0.972716 0.231975 0.003368 
0.969550 0.244873 0.003114 
0.964787 0.263021 0.002556 
0.957708 0.287736 0.001522 
0.947296 0.320358 -0.000207 
0.932183 0.361977 -0.002877 
0.910698 0.413018 -0.006719 
0.881114 0.472755 -0.011904 
0.842120 0.538971 -0.018537 
0.793442 0.608057 -0.026786 
0.736331 0.675597 -0.037221 
0.673914 0.737027 -0.051299 
0.612144 0.787531 -0.071235 
0.563538 0.820515 -0.095815 
0.555669 0.825399 0.099742 
0.593586 0.801178 0.075960 
0.638566 0.767406 0.057624 
0.681805 0.730089 0.045954 
0.720758 0.692118 0.038477 
0.755105 0.654758 0.033287 
0.785228 0.618511 0.029325 
0.811657 0.583552 0.026058 
0.834888 0.549930 0.023224 
0.855333 0.517666 0.020687 
0.873321 0.486798 0.018378 
0.889114 0.457397 0.016257 
0.902921 0.429568 0.014309 
0.914921 0.403439 0.012527 
0.925275 0.379141 0.010914 
0.934139 0.356785 0.009471 
0.941668 0.336444 0.008202 
0.948016 0.318145 0.007103 
0.953333 0.301857 0.006168 
0.957765 0.287502 0.005387 
0.961444 0.274961 0.004745 
0.964490 0.264086 0.004227 
0.967009 0.254713 0.003817 
0.969091 0.246678 0.003499 
0.970811 0.239824 0.003258 
0.972228 0.234014 0.003082 
0.973390 0.229136 0.002961 
0.974328 0.225114 0.002885 
0.975063 0.221909 0.002849 
0.975601 0.219534 0.002845 
0.975932 0.218058 0.002869 
0.976029 0.217622 0.002914 
0.975843 0.218452 0.002970 
0.975296 0.220880 0.003023 
0.974269 0.225369 0.003049 
0.972584 0.232534 0.003006 
0.969980 0.243168 0.002830 
0.966076 0.258248 0.002426 
0.960315 0.278914 0.001660 
0.951909 0.306380 0.000356 
0.939786 0.341760 -0.001691 
0.922587 0.385760 -0.004688 
0.898791 0.438289 -0.008799 
0.867006 0.498097 -0.014113 
0.826425 0.562668 -0.020662 
0.777255 0.628536 -0.028588 
0.720949 0.691918 -0.038500 
0.660381 0.749134 -0.051927 
0.600848 0.796190 -0.071157 
0.553952 0.827101 -0.095087 
0.550787 0.828790 0.098691 
0.588712 0.804842 0.075151 
0.633777 0.771413 0.056997 
0.677195 0.734400 0.045433 
0.716418 0.696634 0.038013 
0.751116 0.659352 0.032851 
0.781654 0.623042 0.028898 
0.808542 0.587880 0.025627 
0.832253 0.553928 0.022779 
0.853176 0.521230 0.020221 
0.871620 0.489855 0.017884 
0.887826 0.459911 0.015734 
0.901988 0.431543 0.013757 
0.914276 0.404915 0.011952 
0.924851 0.380190 0.010322 
0.933871 0.357500 0.008872 
0.941499 0.336931 0.007604 
0.947898 0.318507 0.006515 
0.953230 0.302194 0.005598 
0.957648 0.287900 0.004840 
0.961295 0.275490 0.004225 
0.964295 0.264803 0.003735 
0.966760 0.255662 0.003354 
0.968782 0.247894 0.003064 
0.970438 0.241335 0.002849 
0.971786 0.235848 0.002698 
0.972873 0.231324 0.002599 
0.973730 0.227692 0.002543 
0.974372 0.224929 0.002522 
0.974801 0.223062 0.002531 
0.975002 0.222183 0.002562 
0.974938 0.222461 0.002606 
0.974550 0.224157 0.002652 
0.973741 0.227641 0.002680 
0.972373 0.233418 0.002658 
0.970237 0.242144 0.002539 
0.967034 0.254639 0.002248 
0.962331 0.271876 0.001683 
0.955517 0.294936 0.000703 
0.945753 0.324886 -0.000860 
0.931952 0.362566 -0.003188 
0.912828 0.408293 -0.006444 
0.887064 0.461521 -0.010728 
0.853628 0.520635 -0.016062 
0.812137 0.583036 -0.022440 
0.763107 0.645575 -0.030012 
0.708000 0.705110 -0.039443 
0.649351 0.758686 -0.052330 
0.591874 0.802897 -0.071009 
0.546459 0.832144 -0.094446 
0.546524 0.831715 0.097781 
0.584461 0.807999 0.074454 
0.629614 0.774854 0.056460 
0.673208 0.738083 0.044989 
0.712698 0.700462 0.037618 
0.747739 0.663198 0.032477 
0.778681 0.626771 0.028527 
0.806015 0.591356 0.025246 
0.830191 0.557030 0.022377 
0.851574 0.523860 0.019790 
0.870449 0.491950 0.017419 
0.887037 0.461447 0.015233 
0.901518 0.432539 0.013224 
0.914055 0.405429 0.011392 
0.924808 0.380310 0.009745 
0.933940 0.357334 0.008288 
0.941624 0.336594 0.007024 
0.948035 0.318112 0.005948 
0.953345 0.301841 0.005051 
0.957718 0.287675 0.004319 
0.961305 0.275463 0.003732 
0.964236 0.265024 0.003272 
0.966627 0.256172 0.002920 
0.968571 0.248721 0.002658 
0.970147 0.242506 0.002470 
0.971412 0.237388 0.002342 
0.972411 0.233261 0.002263 
0.973173 0.230066 0.002224 
0.973708 0.227790 0.002217 
0.974013 0.226480 0.002235 
0.974066 0.226253 0.002268 
0.973821 0.227303 0.002306 
0.973205 0.229926 0.002333 
0.972107 0.234527 0.002326 
0.970362 0.241645 0.002246 
0.967735 0.251963 0.002038 
0.963886 0.266309 0.001622 
0.958341 0.285626 0.000889 
0.950444 0.310896 -0.000300 
0.939332 0.343002 -0.002101 
0.923947 0.382493 -0.004665 
0.903117 0.429317 -0.008110 
0.875769 0.482569 -0.012480 
0.841204 0.540427 -0.017751 
0.799360 0.600376 -0.023905 
0.750912 0.659669 -0.031122 
0.697205 0.715748 -0.040127 
0.640417 0.766226 -0.052575 
0.584774 0.808098 -0.070831 
0.540621 0.836010 -0.093895 
0.542797 0.834244 0.096994 
0.580753 0.810723 0.073854 
0.626000 0.777810 0.056001 
0.669778 0.741220 0.044611 
0.709536 0.703682 0.037280 
0.744921 0.666377 0.032154 
0.776268 0.629773 0.028201 
0.804044 0.594048 0.024904 
0.828677 0.559294 0.022006 
0.850507 0.525607 0.019382 
0.869793 0.493126 0.016970 
0.886734 0.462044 0.014744 
0.901499 0.432595 0.012698 
0.914244 0.405020 0.010838 
0.925129 0.379543 0.009174 
0.934328 0.356331 0.007712 
0.942024 0.335483 0.006455 
0.948406 0.317011 0.005395 
0.953659 0.300855 0.004522 
0.957957 0.286886 0.003818 
0.961457 0.274936 0.003262 
0.964297 0.264806 0.002834 
0.966595 0.256297 0.002512 
0.968446 0.249214 0.002278 
0.969927 0.243388 0.002115 
0.971096 0.238680 0.002010 
0.971995 0.234994 0.001950 
0.972648 0.232276 0.001925 
0.973063 0.230531 0.001928 
0.973230 0.229826 0.001950 
0.973118 0.230298 0.001980 
0.972673 0.232171 0.002006 
0.971807 0.235770 0.002007 
0.970391 0.241532 0.001956 
0.968239 0.250021 0.001808 
0.965085 0.261934 0.001503 
0.960557 0.278083 0.000955 
0.954143 0.299352 0.000053 
0.945162 0.326600 -0.001333 
0.932755 0.360497 -0.003341 
0.915923 0.401308 -0.006093 
0.893651 0.448660 -0.009659 
0.865105 0.501394 -0.014042 
0.829872 0.557623 -0.019192 
0.788109 0.615024 -0.025096 
0.740522 0.671271 -0.031978 
0.688280 0.724307 -0.040618 
0.633224 0.772171 -0.052716 
0.579187 0.812127 -0.070650 
0.536102 0.838966 -0.093434 
0.539538 0.836435 0.096314 
0.577523 0.813074 0.073338 
0.622876 0.780342 0.055608 
0.666849 0.743876 0.044288 
0.706887 0.706359 0.036992 
0.742626 0.668948 0.031874 
0.774383 0.632101 0.027911 
0.802607 0.596001 0.024589 
0.827696 0.560759 0.021656 
0.849963 0.526501 0.018988 
0.869640 0.493410 0.016528 
0.886907 0.461728 0.014256 
0.901918 0.431735 0.012171 
0.914827 0.403716 0.010282 
0.925798 0.377921 0.008602 
0.935017 0.354531 0.007139 
0.942681 0.333642 0.005891 
0.948995 0.315255 0.004852 
0.954155 0.299285 0.004007 
0.958347 0.285585 0.003335 
0.961736 0.273962 0.002812 
0.964465 0.264201 0.002417 
0.966652 0.256086 0.002126 
0.968394 0.249418 0.001920 
0.969768 0.244024 0.001781 
0.970829 0.239768 0.001696 
0.971616 0.236559 0.001653 
0.972149 0.234358 0.001641 
0.972431 0.233184 0.001651 
0.972446 0.233123 0.001673 
0.972154 0.234337 0.001695 
0.971490 0.237076 0.001701 
0.970352 0.241689 0.001670 
0.968595 0.248639 0.001566 
0.966009 0.258506 0.001343 
0.962301 0.271983 0.000935 
0.957072 0.289849 0.000252 
0.949784 0.312905 -0.000811 
0.939748 0.341861 -0.002377 
0.926132 0.377171 -0.004560 
0.908031 0.418837 -0.007448 
0.884594 0.466230 -0.011076 
0.855216 0.518043 -0.015415 
0.819702 0.572427 -0.020406 
0.778329 0.627315 -0.026056 
0.731762 0.680779 -0.032634 
0.680962 0.731172 -0.040969 
0.627476 0.776845 -0.052791 
0.574828 0.815233 -0.070482 
0.532641 0.841210 -0.093059 
0.536693 0.838330 0.095726 
0.574719 0.815098 0.072894 
0.620195 0.782498 0.055272 
0.664380 0.746098 0.044014 
0.704715 0.708538 0.036744 
0.740826 0.670952 0.031628 
0.773010 0.633791 0.027648 
0.801691 0.597245 0.024294 
0.827239 0.561445 0.021317 
0.849936 0.526557 0.018597 
0.869987 0.492813 0.016083 
0.887549 0.460507 0.013760 
0.902767 0.429973 0.011633 
0.915792 0.401536 0.009717 
0.926799 0.375471 0.008024 
0.935989 0.351968 0.006562 
0.943576 0.331113 0.005330 
0.949780 0.312887 0.004317 
0.954814 0.297182 0.003503 
0.958873 0.283822 0.002866 
0.962127 0.272591 0.002379 
0.964724 0.263255 0.002018 
0.966785 0.255586 0.001758 
0.968405 0.249377 0.001580 
0.969660 0.244454 0.001465 
0.970602 0.240686 0.001399 
0.971266 0.237991 0.001370 
0.971669 0.236341 0.001367 
0.971807 0.235773 0.001380 
0.971657 0.236392 0.001398 
0.971171 0.238382 0.001407 
0.970271 0.242017 0.001389 
0.968844 0.247669 0.001318 
0.966725 0.255817 0.001156 
0.963684 0.267044 0.000852 
0.959406 0.282027 0.000336 
0.953469 0.301491 -0.000478 
0.945321 0.326136 -0.001693 
0.934284 0.356512 -0.003415 
0.919578 0.392865 -0.005736 
0.900404 0.434967 -0.008715 
0.876080 0.482008 -0.012354 
0.846192 0.532620 -0.016608 
0.810701 0.585069 -0.021419 
0.769930 0.637565 -0.026825 
0.724448 0.688533 -0.033135 
0.675014 0.736653 -0.041219 
0.622926 0.780495 -0.052827 
0.571472 0.817602 -0.070338 
0.530037 0.842885 -0.092765 
0.534222 0.839964 0.095222 
0.572303 0.816830 0.072515 
0.617922 0.784315 0.054988 
0.662342 0.747922 0.043782 
0.702999 0.710252 0.036530 
0.739506 0.672417 0.031410 
0.772139 0.634862 0.027405 
0.801294 0.597789 0.024010 
0.827308 0.561357 0.020979 
0.850429 0.525775 0.018199 
0.870833 0.491331 0.015624 
0.888656 0.458382 0.013247 
0.904035 0.427315 0.011078 
0.917125 0.398494 0.009135 
0.928116 0.372217 0.007433 
0.937225 0.348674 0.005980 
0.944689 0.327934 0.004769 
0.950744 0.309953 0.003786 
0.955618 0.294592 0.003009 
0.959516 0.281645 0.002411 
0.962614 0.270869 0.001962 
0.965063 0.262013 0.001636 
0.966983 0.254837 0.001408 
0.968470 0.249128 0.001256 
0.969595 0.244713 0.001164 
0.970409 0.241466 0.001115 
0.970941 0.239314 0.001098 
0.971204 0.238246 0.001101 
0.971188 0.238313 0.001113 
0.970861 0.239641 0.001123 
0.970167 0.242434 0.001114 
0.969018 0.246986 0.001066 
0.967286 0.253686 0.000950 
0.964790 0.263022 0.000724 
0.961281 0.275571 0.000335 
0.956426 0.291975 -0.000288 
0.949788 0.312892 -0.001228 
0.940816 0.338908 -0.002579 
0.928857 0.370413 -0.004432 
0.913197 0.407460 -0.006856 
0.893156 0.449639 -0.009882 
0.868203 0.496026 -0.013493 
0.838079 0.545265 -0.017634 
0.802839 0.595781 -0.022261 
0.762797 0.646056 -0.027441 
0.718405 0.694817 -0.033520 
0.670233 0.740995 -0.041399 
0.619378 0.783313 -0.052844 
0.568942 0.819374 -0.070226 
0.528136 0.844102 -0.092547 
0.532090 0.841365 0.094792 
0.570243 0.818297 0.072195 
0.616029 0.785818 0.054749 
0.660714 0.749371 0.043586 
0.701726 0.711519 0.036346 
0.738661 0.673354 0.031212 
0.771771 0.635319 0.027174 
0.801420 0.597631 0.023728 
0.827909 0.560483 0.020634 
0.851447 0.524139 0.017786 
0.872180 0.488951 0.015144 
0.890226 0.455342 0.012709 
0.905715 0.423757 0.010498 
0.918814 0.394599 0.008532 
0.929730 0.368179 0.006827 
0.938705 0.344679 0.005388 
0.945998 0.324144 0.004205 
0.951866 0.306497 0.003260 
0.956549 0.291561 0.002524 
0.960261 0.279098 0.001968 
0.963184 0.268840 0.001559 
0.965469 0.260517 0.001269 
0.967236 0.253877 0.001072 
0.968579 0.248705 0.000947 
0.969566 0.244829 0.000875 
0.970243 0.242132 0.000841 
0.970636 0.240551 0.000833 
0.970750 0.240089 0.000839 
0.970570 0.240816 0.000848 
0.970058 0.242874 0.000845 
0.969146 0.246487 0.000814 
0.967736 0.251966 0.000731 
0.965687 0.259709 0.000564 
0.962803 0.270206 0.000271 
0.958820 0.284014 -0.000204 
0.953392 0.301732 -0.000930 
0.946076 0.323938 -0.001987 
0.936332 0.351098 -0.003457 
0.923547 0.383448 -0.005414 
0.907083 0.420877 -0.007907 
0.886375 0.462839 -0.010946 
0.861025 0.508357 -0.014499 
0.830885 0.556137 -0.018512 
0.796057 0.604786 -0.022959 
0.756810 0.653037 -0.027935 
0.713472 0.699867 -0.033819 
0.666447 0.744394 -0.041534 